27
Lattice="9.811129067365956 0.0 0.0 -4.528777932979856 8.422697326268596 0.0 0.0 0.0 100.0" Properties=species:S:1:pos:R:3:atom_types:I:1:energies:R:1:forces:R:3 energy=-26.995828310658855 free_energy=-26.995828310658855 stress="0.002647033843522801 0.00041462170644393433 0.00027520035526693194 0.00041462170644393433 0.002885613831418783 0.0002329549159852482 0.00027520035526693194 0.0002329549159852482 0.0021666540024259354" pbc="T T T"
Mo       0.83472988       0.29282983      10.07725889        0       0.92688824      -0.44484367       2.84495741       2.10891507
S        0.87171097       2.34922678      11.64810110        1       1.94326820       0.11793962      -0.90412601      -0.76337528
S        0.86545637       2.26451945       8.18193614        2       0.70430933       0.01853351       0.00899314       3.10970394
Mo      -0.77480645       3.16883379      10.12756251        0       0.71172347       1.81970323       1.96771865      -2.86926031
S       -0.62070402       5.19333476      11.81220107        1       1.03960404      -0.15072177      -0.83802497      -1.81472172
S       -0.51218607       5.05976212       8.40774026        2       1.66375239      -0.10735016       0.02587916       2.29552950
Mo      -2.18696150       6.01182918      10.01462170        0       0.66065926      -0.03334966      -0.97700216       1.03944109
S       -1.92230433       7.88123779      11.57541339        1       2.05700872      -1.57390771      -0.52279716       1.05561575
S       -2.15987788       7.89304941       8.62920590        2       2.71289975       0.39440718      -0.51486220      -3.12419494
Mo       4.02889600       0.32255853      10.04670311        0       2.06365812       1.38138410       1.67699519      -0.96850970
S        4.12432297       2.25078485      11.55626207        1       1.38889180      -0.68905280      -0.22294879       0.20930026
S        4.18692386       2.16217760       8.42734290        2       1.58994843      -0.45875249       0.42470600       1.59192934
Mo       2.42883723       3.27767158      10.02679829        0       0.77908416       1.30803691      -1.70043560      -0.63680174
S        2.79050684       5.17031883      11.55550170        1       1.32263322      -0.12871522      -0.35040756       0.78273318
S        2.85467457       4.96361012       8.50356850        2       1.65909153      -0.84305464       1.65046286       0.13820896
Mo       1.02212048       6.04715121      10.20094681        0       0.51139258       0.45363902      -0.28319635      -2.55480202
S        1.05539885       8.00459999      11.58764983        1       1.94170201       1.45229897      -0.09840297       0.01321133
S        1.29158020       7.83793049       8.53726875        2       2.25512276      -1.61550295      -0.98778761      -1.81088395
Mo       7.37255135       0.37677875       9.85935665        0       1.10655521       0.14220281       2.17460043       5.33710565
S        7.59042513       2.22612066      11.57322649        1       1.71308424      -1.75970263      -1.23566489       0.31761034
S        7.52220050       2.40506290       8.32233438        2       1.14030319      -0.94848189      -0.45820101       1.98587447
Mo       5.79919160       3.11027214      10.10192701        0       0.17054338       0.89806413       1.69791211      -1.99506468
S        6.10283035       5.16892565      11.81806420        1       0.99574147      -0.49369555      -0.46674242      -2.60858015
S        5.77532603       5.12753250       8.38165737        2       1.81757830       1.60478422      -0.77884547       1.61703737
Mo       4.49017506       6.13691617      10.04595844        0       1.20099430      -1.04622949      -0.56644947       0.34205482
S        4.36249107       7.85818458      11.65229536        1       2.18139048       0.20191680       0.65896793      -1.22007459
S        4.50332786       8.12986554       8.47154498        2       1.78799870       0.50045011      -2.22529824      -1.57800200
27
Lattice="9.261324002253584 0.0 0.0 -4.267256908602364 7.427683724371399 0.0 0.0 0.0 100.0" Properties=species:S:1:pos:R:3:atom_types:I:1:energies:R:1:forces:R:3 energy=-21.367749982516532 free_energy=-21.367749982516532 stress="-0.0030882837823314685 0.0012379729832525219 -0.00018079319246890174 0.0012379729832525219 -0.009298206550233562 0.0001013529160277583 -0.00018079319246890174 0.0001013529160277583 -0.0029228988275780887" pbc="T T T"
Mo       0.60360031       0.37843622       9.81891220        0       3.47655619       5.91194857      -0.35430948       5.71076149
S        0.91911787       2.02201376      11.54952488        1       3.68250589       0.61574957       0.06528224      -1.47547080
S        1.03128733       1.97053098       8.50017746        2       4.96007069      -2.91439918       0.64499107      -7.90306677
Mo      -0.51454157       2.93493210       9.88790629        0       2.82465978      -1.02765732      -2.27088376       3.29060157
S       -0.52815942       4.56262461      11.50951967        1       4.38208943       0.91258464       0.00739896       1.20742260
S       -0.38908304       4.44274325       8.21565662        2       3.26607131       0.22936834       1.45945861       1.04228066
Mo      -1.94773886       5.20902613       9.90304763        0       2.61523212      -1.03377942       2.51576766      -2.08591702
S       -1.78727161       7.04925028      11.81041823        1       0.83044460      -0.04706455       0.11361344      -2.73777997
S       -1.95886542       6.96653184       8.38280685        2       3.10762388       0.89958494       0.69590822       0.50050054
Mo       4.09290600       0.58632424       9.93478340        0       2.46526390      -2.83781758      -6.76244554      -0.77270624
S        4.10207286       2.17888762      11.41976817        1       5.39471222      -1.45645327       1.05732291       0.91618125
S        4.12575407       2.00502849       8.18958136        2       3.81084385      -1.20423556       0.68271376      -0.65957851
Mo       2.47131578       2.79216972       9.73142788        0       3.20534138       2.44840539       0.59130549       6.21851430
S        2.59809404       4.47816967      11.43465205        1       3.77084304       1.71330135      -0.02645947      -0.13980504
S        2.48775740       4.50360497       8.22261187        2       2.92567655       0.88230732       0.73331764       0.49121487
Mo       1.10853695       5.39278932      10.06683599        0       4.14500800      -1.31313472      -5.72560641      -4.20616638
S        1.17037945       6.91255870      11.45561228        1       3.87323861       0.86932916       4.26813514       2.75943425
S        1.13867979       6.71359675       8.36565210        2       4.07773365       0.65682122       4.59617076      -0.16539912
Mo       7.04564300       0.53554254       9.97141935        0       2.75169062      -0.27486550      -7.98725968      -3.27924221
S        7.07759919       1.85945807      11.53759074        1       3.23136164       0.51157464       4.60027363       0.80335170
S        7.05558966       2.15078320       8.46797583        2       5.51790417       1.96133334      -0.04165306      -3.91867734
Mo       5.54956131       2.72385912       9.82791050        0       4.43939776       1.16578029       4.04009676       2.15094554
S        5.77418176       4.48675121      11.30256241        1       4.41376976      -0.54302325      -0.56678606       1.77741928
S        5.54778962       4.52775295       8.27774083        2       3.68542788       3.64684654      -1.97251386      -2.07206683
Mo       4.33773466       5.34816826       9.70010608        0       3.01083632      -5.51210992      -0.23981522       4.66454535
S        4.25942646       6.99261080      11.46685738        1       4.68450816      -0.94058767      -1.09651970      -0.44460315
S        4.42070130       6.99663114       8.24166520        2       3.40365498      -3.31980735       0.97249594      -1.67269402
27
Lattice="8.913963086677777 0.0 0.0 -4.676675077573148 8.108978736172254 0.0 0.0 0.0 100.0" Properties=species:S:1:pos:R:3:atom_types:I:1:energies:R:1:forces:R:3 energy=-25.521558575570964 free_energy=-25.521558575570964 stress="-0.004954664509381966 -0.0012837534868811442 -0.000626038501617072 -0.0012837534868811442 -0.001433838654650357 0.0001388712124176185 -0.000626038501617072 0.0001388712124176185 -0.0032504013411406435" pbc="T T T"
Mo       0.77384342       0.45631468      10.05185989        0       3.60639437       1.38632470      -0.54132028      -0.84504087
S        0.79559527       2.34602227      11.55108508        1       3.61512042      -3.38067186      -2.97696314       2.66959769
S        0.89530419       2.10836175       8.55839223        2       5.34872824      -4.71699880      -0.94864880      -3.82711571
Mo      -0.74814446       3.14199549      10.08836970        0       1.31083916      -0.84994677       0.99466510      -3.64177023
S       -0.90358615       5.06544777      11.61182393        1       3.22835968      -0.69776180      -1.74112431       0.01220376
S       -0.93922774       5.04845330       8.35510217        2       3.24740070       0.71357416      -1.77439582       0.99639639
Mo      -2.43624316       5.68495751       9.93769163        0       3.51195458       1.26034388       3.28698861      -0.43445230
S       -2.44883770       7.56626636      11.52970940        1       3.05678288      -0.34656912      -0.67365395       1.76793238
S       -2.32393257       7.60288581       8.54413969        2       3.40428053       0.03512308       0.41518845      -0.07259759
Mo       3.82342786       0.44048259      10.24693573        0       2.76810028      -4.05943498       1.84539758      -8.96578329
S        3.47948259       2.26577253      11.61064462        1       3.09417366       1.48101549       0.52169971       0.70336932
S        3.80905766       2.14922335       8.35842262        2       3.40113212      -2.05073544      -0.38776702       1.27440599
Mo       1.98769789       3.01720090       9.97900785        0       3.98382038       8.31407385       4.73656573       2.19762253
S        1.98765599       4.77270431      11.75634869        1       2.07363209       0.58059872       1.09593200      -2.28464859
S        1.88532548       4.96774717       8.63409406        2       4.71416448       0.73596371      -0.84779731      -3.74693225
Mo       0.48507380       5.89708844      10.07117199        0       2.58793684       0.87442935       1.43604119      -0.10054055
S        0.34413246       7.72039413      11.57887258        1       4.41350232       4.46501380      -1.93986003       4.70306114
S        0.56971812       7.69740769       8.24365089        2       2.48887374       0.02582755      -0.89843658       2.27223585
Mo       6.69056308       0.38858728      10.02807031        0       2.49228920      -0.67204469      -0.01053896      -2.09007925
S        6.67024370       2.20652142      11.49012605        1       2.42677482      -1.04856433       0.25655455       1.72733388
S        6.50618132       2.12583401       8.47489157        2       2.90887944       1.73076149       1.16399328      -0.32184283
Mo       5.01607422       3.24278835       9.93038932        0       2.47782486       0.97671840      -1.64725946       1.17385830
S        5.14188144       4.92713783      11.45623784        1       5.26510326      -2.00980100      -0.30309510       1.45781770
S        4.98768058       4.98143813       8.26005169        2       2.94434471      -0.46386098      -0.61935047       0.67065016
Mo       3.54682847       5.83047350       9.93722543        0       2.33468805      -0.19966543      -0.84677388       1.13385772
S        3.56827725       7.52770009      11.39132012        1       4.77591494      -0.86575821       0.54301155       4.55797685
S        3.63988668       7.68411251       8.46053296        2       3.07808934      -1.21795477      -0.13905265      -0.98751621
27
Lattice="9.351681539757159 0.0 0.0 -5.103549276780913 8.335490416920987 0.0 0.0 0.0 100.0" Properties=species:S:1:pos:R:3:atom_types:I:1:energies:R:1:forces:R:3 energy=-28.223513586625632 free_energy=-28.223513586625632 stress="-0.00010765520450664743 -0.0005769980361889266 0.0013741322829623303 -0.0005769980361889266 0.0014298896373372812 -0.0006083792920850881 0.0013741322829623303 -0.0006083792920850881 0.0004843001879328" pbc="T T T"
Mo       0.67860571       0.50587828      10.02767719        0       2.58929447      -2.14436237      -3.15161673       0.47008576
S        0.48191553       2.14093844      11.52878947        1       3.35568965      -0.11115827       1.91846732       0.49254621
S        0.45482932       2.06853211       8.40332939        2       2.53448856       0.34981196       1.79357132      -1.35495305
Mo      -0.97568244       3.24671399       9.87284982        0       1.61035906      -0.96224384      -0.51709638       3.66267814
S       -1.21068927       5.06972986      11.67529759        1       2.53315385      -0.70067120      -0.69874805      -1.52619956
S       -1.19102642       5.13815891       8.48909646        2       3.05156381      -0.01430799      -0.78067163      -3.42190346
Mo      -2.71062791       6.05135716       9.92020954        0       1.35522761      -1.05530017       0.91606157       3.66530740
S       -2.86302385       7.91716726      11.67059744        1       2.39658365       0.40821247      -0.56027394      -1.87554248
S       -3.14044148       7.94637911       8.38085729        2       2.56769268       2.67082397      -0.68627141       0.23873354
Mo       3.89108319       0.38910944      10.00223688        0       1.26602311      -3.71033099       1.95958599       2.52189221
S        3.76146140       2.41960171      11.56919341        1       1.83520942      -0.97503305      -1.00168780      -0.91449010
S        3.53607746       2.31529212       8.48666315        2       2.15508460       1.48573109      -0.33054792      -0.70003150
Mo       1.92767427       3.11113612       9.93457466        0       0.95926773       1.45228521       2.27821774       1.54537693
S        2.01595602       5.09241049      11.59316925        1       2.49330947      -0.83140474      -1.29533611      -0.87121645
S        1.89274200       5.27216758       8.38491873        2       2.00193694       0.01534975      -1.80061858       0.42498889
Mo       0.27169347       5.78582645      10.02324356        0       1.68875378       2.42808539       4.11924561       1.81070657
S        0.27069377       7.85884269      11.68685347        1       1.50981184       0.71953612      -0.71577001      -2.17868751
S        0.11628816       7.86493905       8.49842944        2       2.28659608       1.70746606      -1.55438676      -1.41007475
Mo       6.93338906       0.46458499       9.87283298        0       1.24480248      -1.38150931       0.52897089       2.69215134
S        6.93543054       2.33217004      11.59029922        1       1.92775753      -0.94595609      -0.16271022      -1.82603693
S        6.79729030       2.37511763       8.40148897        2       2.50295019      -0.71025169      -0.11689783      -0.41437052
Mo       5.21956530       3.36631545      10.00203956        0       2.01198543       0.35495206      -3.09837268      -1.80822500
S        5.09961222       4.97066843      11.44069944        1       3.10495823       0.48391746       2.34146665       2.52665387
S        5.08269129       5.14315178       8.45591950        2       2.64416639      -0.10441836      -0.37115102      -1.18652784
Mo       3.51464808       5.95339082      10.00440740        0       1.75162215      -0.65152183       1.65113035      -0.80391673
S        3.22616648       7.87172370      11.57604446        1       2.47498674       1.31019775      -0.36658435      -1.05832205
S        3.31161653       7.82839268       8.31314551        2       1.93824555       0.91210059      -0.29797601       1.29937706
27
Lattice="10.797208990133319 0.0 0.0 -4.724135241080002 7.946281536751546 0.0 0.0 0.0 100.0" Properties=species:S:1:pos:R:3:atom_types:I:1:energies:R:1:forces:R:3 energy=-23.89897953707872 free_energy=-23.89897953707872 stress="0.005862263594998386 0.000703049613337467 9.581112543765609e-05 0.000703049613337467 0.00021999654652744808 0.0007566369417408692 9.581112543765609e-05 0.0007566369417408692 0.0031630636945340416" pbc="T T T"
Mo       0.89635946       0.49482745      10.00132728        0       0.87117261       0.51457009      -1.18434921       0.29654768
S        1.01863353       2.21678577      11.75346920        1       0.86841937      -0.48552372       0.39356428      -1.90819483
S        1.05528250       2.17410873       8.37143352        2       1.25466938       0.13650345       0.79665824       0.53440186
Mo      -0.71697247       2.96667893       9.97777101        0       0.24885640      -0.22246377      -0.68875315       2.61682453
S       -0.60586919       4.88332281      11.58542036        1       0.53334252      -0.14804254       0.05148766      -1.67137693
S       -0.53394250       4.66651270       8.48186197        2       0.70222402      -0.13138498       2.05850521       0.52048624
Mo      -2.44063999       5.89234251       9.90943331        0       0.67359431       1.32633885      -3.34285583       1.20933893
S       -2.11487740       7.55680030      11.50913808        1       1.48546831       0.00204242       0.43929975       0.40660214
S       -1.92251324       7.57371088       8.41393133        2       1.19661796      -0.85257103       0.84903480      -0.39899095
Mo       4.45161908       0.37257065      10.01326144        0      -0.00094477       1.18306151       0.71695863       0.05251195
S        4.72418599       2.34870715      11.60035398        1       1.31025270      -0.91141595      -0.65051606      -1.35091784
S        4.55180531       2.32586026       8.38360629        2       0.96046121       1.17067510      -1.52656265       0.33490184
Mo       2.98406892       3.16847877       9.84058815        0       0.29849949      -0.79333812      -2.55991864       3.16524579
S        3.21960139       4.80168835      11.69343780        1       0.96262105       0.00626019       0.94745288      -2.25274243
S        3.15023472       4.70387752       8.25871821        2       0.83062559      -0.28882145       2.95771590       0.39867646
Mo       1.36554570       5.65560074      10.09983886        0      -0.24311179       0.09179727      -0.72676027      -1.85327430
S        1.53905360       7.37906636      11.68450851        1       0.55038755      -0.26041587       1.24911939      -1.50735762
S        1.75011745       7.54186668       8.24862606        2       0.56766990      -0.51469913      -0.27297436       2.21128499
Mo       8.11897102       0.54141957       9.89197639        0       0.44401135       0.12922062      -4.03467623       3.17990001
S        8.11973114       2.18748323      11.69419361        1       0.94839572       0.08806007       0.66047506      -2.13167412
S        8.16635781       2.19737563       8.52999809        2       1.41595374       0.24141329       2.59632150      -1.41300827
Mo       6.33095969       3.08814429       9.99717467        0       0.68162548       1.46617843      -0.16490213      -0.33275488
S        6.66630372       4.88119576      11.57766581        1       1.30870294      -0.10989949       0.64364254      -1.55311527
S        6.84745714       4.88303345       8.24653140        2       1.27120393      -0.90382023      -0.03478570       1.34277768
Mo       4.94033747       5.64073299       9.84764845        0       0.32337335       0.33099080      -1.28193314       2.31039036
S        5.19438392       7.47565171      11.47969085        1       1.30166657      -0.49600134       0.30604503      -0.85737193
S        5.25336800       7.42311681       8.47724725        2       1.20556241      -0.56871446       1.80270650      -1.34911108
27
Lattice="9.458852624701752 0.0 0.0 -4.708427659524038 8.432708997710982 0.0 0.0 0.0 100.0" Properties=species:S:1:pos:R:3:atom_types:I:1:energies:R:1:forces:R:3 energy=-28.68032598517701 free_energy=-28.68032598517701 stress="0.0005330602713570769 0.00037917140295592647 0.0011007114450729775 0.00037917140295592647 0.0018408705574971325 0.0006226132550740713 0.0011007114450729775 0.0006226132550740713 -0.0005671202339113236" pbc="T T T"
Mo       0.74791242       0.33533146       9.98592165        0       2.06490919      -0.46643523       0.52448829       1.46299612
S        0.96857043       2.14405042      11.57516307        1       2.19323808      -0.95392508       1.13202261      -0.27941481
S        0.62332231       2.30962291       8.63421850        2       2.52627032       1.22014407       0.05960011      -3.42033501
Mo      -0.76474067       3.35159876      10.07071932        0       0.89640605      -1.67863515      -1.33535727       1.36593678
S       -0.74338069       5.26246576      11.58263745        1       3.01132085       0.50325639      -0.95554644      -0.20673331
S       -0.94357163       5.14242536       8.39745396        2       2.12850685       2.04253620      -1.74846846      -1.32827311
Mo      -2.27457597       5.92007452       9.94678092        0       1.74484619      -3.30640570       2.80980547       2.44733682
S       -2.29434686       8.07487398      11.49853407        1       3.16970370      -1.61962597      -2.75198168       2.06370456
S       -2.46772857       7.80063631       8.45688583        2       2.20941397       0.99999246       0.34244050      -0.26575945
Mo       3.83385931       0.35000309      10.06576572        0       1.77425245       2.20721429       1.84380541      -2.92035498
S        3.89961158       2.37261319      11.52928196        1       2.43310787       0.27690974      -0.19323835      -0.31692209
S        3.81288998       2.19514147       8.43514654        2       2.07780045       0.89065751       0.30004227       0.35456415
Mo       2.38088874       3.31683369       9.93483722        0       2.03673270      -0.19294200      -1.42223499       1.32741858
S        2.38247877       5.14624011      11.40544666        1       2.97057124      -0.84842056      -0.49790082       1.91175360
S        2.40849913       5.10627646       8.42321893        2       2.82850057      -0.09868983      -0.35766421      -2.27096025
Mo       0.76684432       5.88362862       9.85292545        0       1.27461900      -0.02834506       2.63412015       1.49884967
S        0.86438400       8.09737375      11.69363236        1       1.21907344      -0.40481766      -0.45872749      -1.56582943
S        0.65789536       7.89504795       8.37001856        2       2.04738007       0.85650766      -0.00410013       1.54615555
Mo       7.13745345       0.52237554       9.95221124        0       1.53793917      -1.54224814      -1.91578971      -0.29291368
S        7.10448462       2.20130296      11.63295666        1       1.63539175       0.00966764       1.52637244      -1.14066302
S        6.91497745       2.24622022       8.43909467        2       2.61819952       1.48448063       1.30426513      -0.12505893
Mo       5.53835969       3.33085644       9.99668677        0       1.57589840      -0.99618081      -2.45828194       1.15482920
S        5.44293689       5.15291617      11.54131740        1       2.56970058       0.72653984       0.17625349      -0.06955951
S        5.60340254       4.97765498       8.42017602        2       2.40791345      -0.85572346       1.30904091      -0.03389539
Mo       3.89215611       6.04769714       9.97453508        0       1.41809296       1.53931742       1.16467492      -1.84778799
S        3.74520716       7.92267158      11.55897330        1       2.47390021       1.50324888      -0.51654374      -0.38129438
S        4.07950949       7.95947882       8.30636805        2       2.67329849      -1.26807809      -0.51109648       1.33221030
27
Lattice="8.863291723091884 0.0 0.0 -4.973175259243409 7.855757036469414 0.0 0.0 0.0 100.0" Properties=species:S:1:pos:R:3:atom_types:I:1:energies:R:1:forces:R:3 energy=-25.858164989625333 free_energy=-25.858164989625333 stress="-0.004318682825157704 -0.0019244358635145348 1.1823835328493271e-05 -0.0019244358635145348 -0.0048968744283211735 0.0005505474369599245 1.1823835328493271e-05 0.0005505474369599245 -0.0006181599120937732" pbc="T T T"
Mo       0.93555678       0.33658173       9.88046435        0       2.33640055      -6.28817079       1.17500285       4.93699007
S        0.43506088       2.05114208      11.74446069        1       2.41097619       0.72799788      -0.16990011      -1.66563725
S        0.58891876       2.24857988       8.64468838        2       3.84477456       1.43964196      -0.16738855      -3.97270924
Mo      -0.98770041       3.04275919      10.00354623        0       2.89397830       0.59048604       0.78269078       2.96314075
S       -0.84295222       4.87877677      11.52858902        1       4.43995124      -3.82698086      -1.94167480       2.77794178
S       -1.00688058       4.69434851       8.35238411        2       2.85081431      -0.42829036       1.02048963       1.49112026
Mo      -2.56630408       5.70289273      10.04293735        0       1.94669621       0.88449220      -1.55460655      -0.38430327
S       -2.71569663       7.46188210      11.61322902        1       3.68403664       0.54634766      -0.70539079      -0.13477262
S       -2.67552642       7.37120354       8.46500641        2       3.88957371       2.15720586      -0.19378350      -2.13527628
Mo       3.69400727       0.55735569      10.07810867        0       3.38703483       1.71673179      -4.67005575       0.69379130
S        3.60740848       2.17067953      11.66530972        1       4.48685848      -0.69143383       0.82756261       1.22602572
S        3.60157821       2.03537074       8.55013479        2       4.54138093      -2.18604446       1.85535810      -1.69294775
Mo       2.06850705       3.04017731      10.21014069        0       2.86073730      -1.13515370      -1.59104637      -5.10776969
S        1.86522834       4.74228828      11.44191223        1       4.02875034       0.62824133       1.86351369       6.60865311
S        2.01337560       4.83714234       8.44752446        2       2.84408145      -1.56130829      -1.06951947       1.09538501
Mo       0.34500806       5.75113917      10.12797887        0       3.63502614       2.55976581       0.30991972      -5.90636216
S        0.22010478       7.51917885      11.73936784        1       2.89480933       0.13039537      -0.18565330      -1.18100096
S        0.40148850       7.37013906       8.50766101        2       4.72085151      -2.01587938       0.82121872      -0.00950401
Mo       6.72643363       0.51513186      10.01674101        0       3.28628771      -0.18729911      -1.31621237       0.19673920
S        6.49877821       2.00638867      11.71332129        1       3.90500041      -0.83951108       2.24243575      -1.09819877
S        6.45325014       2.23431442       8.43041742        2       3.73012754      -0.32579968      -0.43494754      -0.07929902
Mo       4.88182043       3.03170843       9.99854999        0       3.20866965       3.74014977       0.48118460       2.58809858
S        4.91532101       4.75376093      11.72234767        1       3.17859562      -0.60538623       0.41467179      -1.54007040
S        4.84373752       4.61523743       8.38416788        2       3.11203092      -0.31685839       1.99749726       0.96604270
Mo       3.32471113       5.72573786      10.06711730        0       2.16736548       2.35422518      -0.35496865      -1.31980434
S        3.12901497       7.46228538      11.66436844        1       3.43490009       1.46646133       0.03558654      -1.08115714
S        3.09800851       7.36752261       8.25553935        2       2.79078596       1.46597398       0.52801572       1.76488443
27
Lattice="9.662663638967494 0.0 0.0 -4.857952457809102 8.334839727027859 0.0 0.0 0.0 100.0" Properties=species:S:1:pos:R:3:atom_types:I:1:energies:R:1:forces:R:3 energy=-26.19224853767277 free_energy=-26.19224853767277 stress="0.002096283618720615 -0.00023669152464055583 -0.000746513592237426 -0.00023669152464055583 0.00011377046137503998 -0.00012107916452551356 -0.000746513592237426 -0.00012107916452551356 -0.0007776401703359103" pbc="T T T"
Mo       0.81956491       0.69634952      10.05811105        0       0.68638870      -0.33337732      -6.78966456      -1.76581859
S        0.63767396       2.24826992      11.50368708        1       2.32848783       1.19397696       3.51607068       2.53345230
S        0.89686621       2.24877335       8.41759754        2       1.73147859      -0.49077018       2.49041716       0.09123176
Mo      -0.74714517       3.40418056      10.01025767        0       1.32204772      -1.18686722      -2.92699122      -1.76686946
S       -0.73758204       5.19822992      11.47351058        1       2.89372274      -0.86985631      -0.98002471       2.78436512
S       -0.94248268       5.08044495       8.37311644        2       2.53240424       0.66170307       0.56551278       0.70357523
Mo      -2.45616310       5.95259697      10.03644446        0       1.70738589      -0.21548547       0.74707115      -1.43328087
S       -2.36292516       7.75696413      11.68980351        1       1.56405428      -0.34125054       1.15116251      -1.73917268
S       -2.41761777       7.72286072       8.45812179        2       2.07159171      -0.36041476       1.69806004       0.70498789
Mo       3.99455481       0.58639903       9.99541485        0       1.42513393       0.41103154      -4.13636822       1.18972064
S        4.12334266       2.14092353      11.56096928        1       1.86209616      -1.76064519       1.89034147       1.73086114
S        4.09172062       2.35452541       8.55687614        2       2.53506625      -1.22961552       0.82527529      -1.51068758