27
Lattice="9.613224199922646 0.0 0.0 -4.6374578069394845 7.752555816355018 0.0 0.0 0.0 100.0" Properties=species:S:1:pos:R:3:atom_types:I:1:energies:R:1:forces:R:3 energy=-28.137450063698324 free_energy=-28.137450063698324 stress="0.000600191312767504 0.0007704858093405045 0.000760315476677413 0.0007704858093405045 -0.002378976831646034 -4.314044092458138e-05 0.000760315476677413 -4.314044092458138e-05 0.0019463041053649475" pbc="T T T"
Mo       0.82553659       0.48739912      10.10254308        0       2.97928515      -2.11314675      -1.51381585      -3.65703545
S        0.69349030       2.08286076      11.64698445        1       2.61976592      -0.09877938       1.94937639      -0.19500248
S        0.80845004       2.15191735       8.42915184        2       3.32509515      -0.29827170       0.27284770       0.12452709
Mo      -0.86323965       3.02560081       9.85880074        0       1.67913347       0.94639114       0.02864313       4.39553640
S       -0.86922773       4.67002068      11.68891061        1       2.25496665       0.68591775       0.19962035      -1.79223234
S       -0.73560776       4.85876192       8.33291577        2       2.54537619      -0.20289112      -0.15199782       1.07342814
Mo      -2.31928935       5.62895710       9.99992672        0       1.19478340      -1.91234522      -1.77117352      -0.26967645
S       -2.30883497       7.30038147      11.57948808        1       2.96000952       0.23693448       0.27019329       0.73893098
S       -2.54259782       7.35097010       8.36236877        2       3.41468678       1.28007319      -0.16640393       1.11412888
Mo       3.77243394       0.47555178       9.98876769        0       1.96790916       1.60025496      -2.78647619      -0.69899563
S        3.88302831       2.15923398      11.61639325        1       2.58020464       1.13365297       0.65454670      -0.64341252
S        3.91692743       2.00059271       8.33287636        2       2.35083206       0.03352637       2.17309637       0.77489654
Mo       2.31506915       2.94969864      10.12570999        0       1.58245757       0.25585546       0.88627750      -2.30981927
S        2.41543409       4.80197949      11.64258160        1       2.92440009      -0.12918182      -0.89339054       0.24938763
S        2.29706646       4.71416941       8.34072748        2       2.38420105       0.59004291      -0.79190418       1.52041821
Mo       0.87072163       5.49036036      10.06964182        0       1.60075206      -2.19538603       1.64087709      -1.14426992
S        0.85380812       7.40774004      11.52927437        1       2.63062103      -0.10516065      -0.46540769      -0.41845893
S        0.85481366       7.31562709       8.30423184        2       2.26113398      -0.48505810      -0.31975773       1.62290965
Mo       7.16067345       0.27971887       9.88516212        0       2.22202031      -0.95090767       1.46418749       0.87844777
S        7.31425624       1.98014153      11.56619492        1       2.38881131      -0.92628452       1.09213624      -1.58223639
S        7.11134992       2.22268510       8.52397861        2       2.71030487       0.90782533      -1.53518680      -4.97108763
Mo       5.60029046       3.00352116       9.86105120        0       1.59418183      -1.75736367      -2.32919611       6.43799786
S        5.56570689       4.68843770      11.69576868        1       1.89895299       0.41531950       0.44096745      -2.31260823
S        5.48944230       4.61522434       8.43078032        2       2.24044289       1.05920112       2.27935599      -1.00797844
Mo       3.90565784       5.42654682       9.98823031        0       1.38564746       1.88146980       2.34751943      -0.15323035
S        4.19645980       7.47283599      11.50516921        1       2.97026201      -0.88992525      -2.27185361       0.90991452
S        4.07359799       7.34850912       8.31613301        2       2.27129734       1.03823688      -0.70308116       1.31552037
27
Lattice="9.110142307244644 0.0 0.0 -4.236717230695658 7.857607061706192 0.0 0.0 0.0 100.0" Properties=species:S:1:pos:R:3:atom_types:I:1:energies:R:1:forces:R:3 energy=-26.396915816558757 free_energy=-26.396915816558757 stress="-0.0032670151962663524 0.0024131091941503612 -9.219619566774283e-05 0.0024131091941503612 -0.0033947482235682737 0.00024863629961172215 -9.219619566774283e-05 0.00024863629961172215 -0.0021848624788406777" pbc="T T T"
Mo       0.82848545       0.31230570      10.00430733        0       4.15790822      -5.82195516       1.60008553       1.72629838
S        0.77471739       2.14915727      11.56314469        1       3.53918226       0.95146078       0.01281555      -0.86879657
S        0.67497044       1.89374441       8.50344145        2       3.25063628       1.92407499       2.11624979      -2.93513410
Mo      -0.63218375       2.98520323       9.88937924        0       2.21700522      -0.25921255       3.04904208       6.64843114
S       -0.60197907       5.04104167      11.65921479        1       3.10048699       0.97768222      -2.36458417       0.40684302
S       -0.49790663       4.97490751       8.46265807        2       4.02784940       0.45929695      -2.19147431      -3.03739830
Mo      -1.80886248       5.65521740       9.97482873        0       2.89878700      -6.10921588       1.12160435       0.16424843
S       -2.00486173       7.44799320      11.41319266        1       4.75140676       2.20651783      -0.96106720       3.32542166
S       -2.11926690       7.54530501       8.47327139        2       3.42347210       3.65258551      -2.07463791      -1.56644512
Mo       3.89580933       0.51362071      10.01370809        0       2.45271163      -1.49431208      -2.03603230      -2.35258196
S        3.81545605       2.15215724      11.46838190        1       4.05836930       0.86751581       0.95624667       1.69295416
S        3.76843223       2.15260911       8.28085243        2       3.03210902       1.45447992       0.04333702       1.18191662
Mo       2.42359484       3.07772402       9.93866784        0       2.40670061      -2.59241384      -1.91708540       0.74286864
S        2.51115060       4.75781919      11.64406097        1       2.97565285       0.03251160       0.72644896      -1.82089129
S        2.52235425       4.65057915       8.33994355        2       2.96908736      -0.66744957       2.24886913       0.55257541
Mo       0.93706013       5.69101480      10.02231262        0       2.21468854       3.28980705       0.07783957       0.69645019
S        1.08346103       7.43785725      11.71914677        1       2.99382850      -0.12864968       0.22740709      -1.65646993
S        1.08486308       7.39405842       8.36415102        2       3.49441297       0.19895741       0.51393487       1.10038729
Mo       6.81965757       0.50545620      10.02611428        0       3.24870466      -1.15272235      -1.19945554       0.06446647
S        6.88010975       2.24234765      11.56570829        1       3.16800589       0.90233376      -0.22893688       0.31339019
S        6.91162537       2.26475131       8.64192654        2       4.99093123      -0.25544248      -1.63523668      -7.04689267
Mo       5.42319210       3.00862085       9.97623260        0       2.82215431      -2.17966502       2.15766697       1.04090747
S        5.51620483       4.72228508      11.62378818        1       2.77653134       0.86480345       0.80429193      -1.67899010
S        5.50272638       4.84077433       8.34672969        2       3.14975715       1.95533565      -0.70814555       0.66006358
Mo       4.10467027       5.66715898       9.89925190        0       2.52425489      -2.38243738      -1.12466208       2.73018901
S        3.83347318       7.37191349      11.53012862        1       4.04971302       2.84463616      -0.36687025       0.97693331
S        4.04853267       7.36194062       8.46414394        2       3.64154456       0.46147690       1.15234877      -1.06074494
27
Lattice="8.979397965199528 0.0 0.0 -4.5717796593996525 7.490407256416246 0.0 0.0 0.0 100.0" Properties=species:S:1:pos:R:3:atom_types:I:1:energies:R:1:forces:R:3 energy=-25.175835720936874 free_energy=-25.175835720936874 stress="-0.006508492997805768 -0.001022146800542536 0.0001505273676080912 -0.001022146800542536 -0.00793625925060852 0.0009046599661630991 0.0001505273676080912 0.0009046599661630991 -0.0016526324423754117" pbc="T T T"
Mo       0.66568677       0.46794067      10.00297660        0       4.31654657       4.02826704      -2.81864160      -0.13357970
S        0.58080273       2.05766406      11.73227126        1       3.74626505       1.29017060       0.93147229      -1.31095929
S        0.62803346       1.92138284       8.45996583        2       5.06546774       1.23427743       2.44381220      -1.21211667
Mo      -0.81090159       2.76687757       9.97900071        0       3.04118468      -1.07583496       3.21511456       1.18293033
S       -0.75910753       4.69305990      11.48881464        1       4.15360285      -2.59953917      -2.17842632       0.89645750
S       -0.75203625       4.61423605       8.45001127        2       3.97537047      -1.48030863      -1.65022983      -1.28746862
Mo      -2.32150122       5.50690943       9.86817518        0       3.27843527      -1.00829478      -5.33060341       2.70637355
S       -2.19376839       7.07914185      11.48414087        1       5.58334450      -3.36302797       0.16915304       1.13193763
S       -2.31733658       6.98911171       8.31999947        2       4.59516673      -1.63364302       2.19380315      -0.48442534
Mo       3.65332912       0.28275496       9.93077326        0       5.04987059       0.39763263       5.02781894       0.53813340
S        3.70435994       2.00980926      11.56934637        1       4.46329538      -0.71168777      -0.31683204      -0.68250001
S        3.74647062       2.19906534       8.34427347        2       4.43868964      -2.57035240      -2.26379828      -0.01898428
Mo       2.18859715       2.90274304      10.04768772        0       2.65838264      -0.89405167      -2.62987789      -2.15339403
S        2.11642255       4.45401575      11.54201309        1       4.71111617       0.88356115       2.18125117       1.25752234
S        2.06141117       4.55573796       8.26772860        2       3.59460444       0.97751183       0.43224471       1.69567839
Mo       0.63702363       5.27538194      10.00266861        0       3.98356879       2.50844000       3.94752215      -1.49524403
S        0.53778063       7.10590225      11.56318471        1       3.69699846       1.57502755      -1.19080978      -0.25324391
S        0.47410234       7.20711443       8.47162199        2       5.47462358       2.44405788      -2.77476480      -2.34124282
Mo       6.62660713       0.38069325       9.95709008        0       2.74523543       1.26144970       0.20278216       0.01210805
S        6.59540731       2.12130734      11.58168317        1       4.22501574       0.09258974      -0.41479730      -0.84075692
S        6.67867417       2.09005006       8.36584827        2       3.97120873       0.11106652      -0.76998963      -0.27764619
Mo       5.10726336       2.81229177       9.88280981        0       4.51919690       2.45402020       0.87632030       3.44388449
S        5.14214653       4.50358203      11.59958539        1       3.62541268       0.49270566       1.05661250      -1.65487560
S        5.17149928       4.38947902       8.36016342        2       4.03013768       0.00259521       2.58128841      -0.24581378
Mo       3.65538720       5.41294901       9.97095966        0       2.96273328      -0.19468341      -3.36567760       1.06527323
S        3.70233329       7.20765589      11.42824950        1       4.81071676      -2.03198200      -1.89775299       3.16698869
S        3.84120686       6.87697968       8.48096595        2       4.33905229      -2.18996734       2.34300588      -2.70503641
27
Lattice="9.650562943744072 0.0 0.0 -5.175780267425877 8.023333272984665 0.0 0.0 0.0 100.0" Properties=species:S:1:pos:R:3:atom_types:I:1:energies:R:1:forces:R:3 energy=-25.726282678659217 free_energy=-25.726282678659217 stress="0.0009640848327418642 -0.0010112628996215933 -0.00010330809973919979 -0.0010112628996215933 -0.0008686346784669509 0.00011593419664153981 -0.00010330809973919979 0.00011593419664153981 -0.00042682204929984024" pbc="T T T"
Mo       0.83089417       0.40899858      10.09907961        0       1.30834782       1.06491776      -2.85129152      -6.02773556
S        0.74426782       2.04543875      11.40100907        1       3.61603314      -0.67495150       2.23548133       3.24232972
S        0.67495169       2.13160862       8.23116008        2       2.21526681       0.33498171      -0.77532011       0.67092493
Mo      -0.79375977       2.87187628       9.85845441        0       2.10675529      -0.90014814       3.03264435       1.89320371
S       -0.93231290       4.89419518      11.53342831        1       2.03328496      -0.24463404      -1.32116370      -0.63733712
S       -0.99275148       4.78045461       8.38798655        2       1.94559587      -0.69474164       0.14433126       0.48895086
Mo      -2.72288221       5.77600185      10.11515455        0       0.79298277       1.17433038       0.08024202      -3.58786840
S       -2.70307636       7.56138785      11.76884028        1       1.26341105      -0.23744069       0.32847441      -1.89978464
S       -2.67638869       7.45789135       8.27719905        2       1.83798941      -1.87441043      -0.38948120       0.60564062
Mo       3.92074772       0.36429138       9.70633162        0       0.69482671       1.51413938       0.38523042       6.26752955
S        3.79327729       2.18121541      11.62582859        1       1.44213822       0.66221523      -0.26125209      -2.68983897
S        3.86521645       2.18744388       8.32049630        2       1.56140893       0.34300602       0.65084920      -0.55154988
Mo       2.16612290       2.93188059       9.88040654        0       1.30612276       2.67928069       2.43089122       0.36732515
S        2.46284489       4.88581752      11.60630357        1       1.66974358      -2.49483007      -0.95202457      -0.32329429
S        2.31564196       5.03236325       8.49683332        2       2.98876814      -0.19947981      -1.30090346      -0.41436230
Mo       0.56741353       5.77416149       9.87593833        0       1.65959985       0.67279474      -0.85936258       2.30755751
S        0.48583250       7.43547406      11.49185465        1       2.41239925      -0.77216677       1.39916078      -0.20002104
S        0.42892506       7.54939027       8.35312293        2       1.66407035       1.31499363       0.64746915      -0.53673713
Mo       7.27191342       0.49680905      10.09957951        0       2.24695898      -1.45601100      -3.91945418      -6.83510776
S        7.19857976       2.15521872      11.45014491        1       2.70873767      -0.00215869       2.26135101       2.30089610
S        7.29448609       2.09723428       8.45367890        2       3.09272735      -1.31497977       0.36489661      -1.69494068
Mo       5.55527514       3.11116103       9.90015738        0       0.84992453      -1.19663835      -1.16401119       1.15755323
S        5.30151070       4.97082258      11.49801750        1       3.13968031       2.36031037      -2.00255157       4.24245391
S        5.31286169       4.83704937       8.32504558        2       2.12651311       0.81805968       0.81888217       1.57522823
Mo       3.89983591       5.80610486      10.17377207        0       3.08725067      -2.06786153       0.30095006      -8.26515152
S        3.63427944       7.65903996      11.43898790        1       2.81507529       1.27641535      -0.08239952       6.15457270
S        3.73311761       7.45941517       8.33738575        2       2.63803125      -0.08499253       0.79836171       2.38956305
27
Lattice="8.844847251494722 0.0 0.0 -4.688202440807526 8.802701554341349 0.0 0.0 0.0 100.0" Properties=species:S:1:pos:R:3:atom_types:I:1:energies:R:1:forces:R:3 energy=-22.677905750319358 free_energy=-22.677905750319358 stress="-0.0038683879549012688 -0.0007955385225142005 -0.0010874204963150012 -0.0007955385225142005 0.0021705256559239557 0.0001103293839825763 -0.0010874204963150012 0.0001103293839825763 -0.003934974675318864" pbc="T T T"
Mo       0.79317141       0.26523928      10.09912443        0       1.44581774      -5.09447489       4.36026421      -5.14823304
S        0.31457495       2.57496765      11.64769620        1       2.07908652       1.47707330      -0.86461989      -1.56870282
S        0.61468946       2.46858537       8.43970725        2       2.34390376      -0.89712482      -1.73613197      -1.69505667
Mo      -0.90578842       3.53765587       9.83032156        0       2.51644203      -1.01886431       0.64196842       3.80721716
S       -0.97869915       5.26135385      11.60560092        1       2.21870518       0.57868273       0.86741502      -1.53814230
S       -1.06873881       5.36938658       8.38581825        2       2.85116233       1.45239704       0.85216858      -1.37566704
Mo      -2.36057475       6.45318994       9.97417150        0       1.34684068      -1.23599345       0.26061414       1.03192104
S       -2.53483858       8.53746316      11.52909388        1       3.04189382       2.24391274      -3.51514941       3.75464453
S       -2.48978735       8.24807391       8.37246519        2       2.12094839       0.74619918      -0.16426966       0.89860206
Mo       3.62243903       0.55031313      10.03180010        0       1.47946348      -0.12111339       1.66523995      -2.44915818
S        3.63655364       2.47867822      11.67248212        1       2.35263825      -1.52780378      -0.85406006      -1.61957668
S        3.63265483       2.57661810       8.39700610        2       3.20975156      -5.15247540      -4.25478849      -4.46970471
Mo       1.93324745       3.39940560       9.88885587        0       1.56457472       2.66626896       0.64220806       4.25042270
S        2.04945548       5.33845615      11.39753031        1       3.17313169      -1.98130019      -0.28243638       1.84669241
S        2.07925907       5.25833422       8.45027773        2       2.24399255      -1.57057710       0.64620997      -2.50544464
Mo       0.48245192       6.64466231       9.91071857        0       1.94200570      -0.85576517      -6.48999791      -1.08623992
S        0.46362124       8.20862412      11.32685645        1       3.08677342      -1.37567778       1.86323686       6.13705437
S        0.27487132       8.25531430       8.41253942        2       3.04625692       0.65891175       1.77460354      -1.78484861
Mo       6.48820581       0.43205841       9.97232204        0       2.17084711       0.47831396       2.67487224      -5.33450266
S        6.51112811       2.53323590      11.42563039        1       2.33014396      -1.36903626      -0.49463296      -0.19506068
S        6.38241082       2.53837298       8.47232351        2       2.78503856       0.69066505      -1.94167465      -3.04198883
Mo       4.74561523       3.33188315       9.75096028        0       2.51181100       6.30841462       6.17616695       8.56324835
S        4.89600594       5.38929633      11.43293712        1       2.40072197       0.28017791      -0.57396727      -0.17546181
S        4.98159398       5.49923602       8.32751833        2       1.66235747      -0.71072137      -0.48580498       0.85635067
Mo       3.34851765       6.36730028       9.96644818        0       2.51671083       2.41586498       0.92496160      -2.37753364
S        3.06101589       8.31343468      11.39452130        1       2.94457985       3.20669300      -1.63533196       4.62758277
S        3.41058283       8.25904152       8.40110480        2       2.88891257      -0.29264729      -0.05706395       0.59158618
27
Lattice="9.13403730408785 0.0 0.0 -4.594639980851486 8.584451413538186 0.0 0.0 0.0 100.0" Properties=species:S:1:pos:R:3:atom_types:I:1:energies:R:1:forces:R:3 energy=-27.99951222437549 free_energy=-27.99951222437549 stress="-0.0014887175459382335 -0.0004843378707591076 -3.7433368994335317e-06 -0.0004843378707591076 0.0020662131322066427 0.0008140111898360424 -3.7433368994335317e-06 0.0008140111898360424 -0.0021025314211397615" pbc="T T T"
Mo       0.70441696       0.41425051      10.06292597        0       2.85496886       0.67883021       1.67789431       1.29905839
S        0.73169667       2.35951365      11.73402458        1       1.71559389       0.19648469      -0.30485253      -1.90498984
S        0.70600902       2.30635812       8.64389756        2       3.81571286       1.23721402      -0.34856087      -3.12750832
Mo      -0.75601331       3.34068646       9.97082382        0       1.32208662      -1.39819208       0.16635187       1.15894582
S       -0.87516956       5.18431059      11.59855767        1       3.03087358      -0.73607523      -1.27286557       0.13587468
S       -0.81128793       5.27914474       8.31890394        2       3.29135187      -0.81622806      -2.09495418       0.26376992
Mo      -2.30016981       6.05056534       9.95282154        0       1.78784272      -2.57354588       0.89071406      -0.52554070
S       -2.51188127       8.05316739      11.47894746        1       2.94726036       2.19164901      -1.08872740       1.51438046
S       -2.35127932       7.92487436       8.48032156        2       2.47553813       0.10573221       1.04150985      -0.21887121
Mo       3.80943520       0.46954158      10.02391267        0       1.93477400      -1.63884210      -2.27094522       0.86133476
S        3.79057616       2.28763700      11.63786326        1       2.54525152       0.36660823      -0.55017081       0.84703582
S        3.75352028       2.18832809       8.60198968        2       3.95675826       0.13695227       0.62203447      -3.13303828
Mo       2.35760738       3.22789662      10.07627171        0       2.58115415      -2.18327712      -0.36871316       0.33886531
S        2.21080422       5.03568063      11.43986108        1       3.19064410      -0.53663140       1.32123294       2.99014555
S        2.23988699       5.16507157       8.58290593        2       2.43038869      -0.94287742      -0.16665433      -1.76600907
Mo       0.42750948       6.07837026      10.02230690        0       2.67685103       4.98513385       1.05026015      -2.10281156
S        0.69030944       7.85432945      11.40875786        1       3.82100858      -0.24125176       0.85153028       3.16103328
S        0.65234016       7.93411983       8.41068275        2       2.50051626       0.07455451       0.30193730       0.43101931
Mo       6.68630895       0.46031986      10.03926790        0       1.88488309       2.55628080      -1.19162178      -1.83443917
S        6.96066620       2.33028473      11.56233939        1       2.45938441      -1.07555562      -0.12363114       0.59093354
S        6.81549529       2.07216962       8.31837873        2       2.11476451       0.06619789       1.43459335       1.63080949
Mo       5.27652235       3.09858880      10.05266114        0       1.13445859       1.72232631       2.44269104      -1.11135665
S        5.40552145       5.15522965      11.58754751        1       2.39814490      -1.23388458      -0.61529326      -0.97990835
S        5.13696066       5.01236782       8.26597493        2       1.18401308       0.56505464       0.11873382       2.68625928
Mo       3.71345748       6.16777970      10.04186653        0       1.49309753       2.14788948      -0.59938905       1.21842226
S        3.73934334       8.17019816      11.58280694        1       2.48942476      -1.04892048      -1.09757536       0.53247668
S        3.90002933       8.01904628       8.62783170        2       2.96697114      -2.60562639       0.17447123      -2.95589140
27
Lattice="9.303263412724435 0.0 0.0 -4.693514998246303 8.272406007014093 0.0 0.0 0.0 100.0" Properties=species:S:1:pos:R:3:atom_types:I:1:energies:R:1:forces:R:3 energy=-27.44006680711382 free_energy=-27.44006680711382 stress="-0.0008140739038789402 3.124692765464698e-05 0.0005553844974692264 3.124692765464698e-05 0.0010132126929785932 0.0001773037702836557 0.0005553844974692264 0.0001773037702836557 -0.0004502383599152991" pbc="T T T"
Mo       0.71112657       0.54969727      10.17730408        0       1.87056753       0.85823847      -1.99214084     -10.72330159
S        0.74428247       2.19643537      11.53898646        1       2.31969401      -0.61135712       2.56909602       2.60968656
S        0.80486904       2.32893059       8.34417417        2       2.29024675      -0.65149459      -0.28161918       2.04039365
Mo      -0.91149375       3.24800742       9.96316901        0       1.65871424       1.71733559      -1.58342161       1.17613261
S       -0.87395694       5.07055580      11.53772680        1       2.72540077       0.40832982      -1.31924091       2.66409069
S       -0.88965713       4.92040113       8.41218010        2       2.95567823       0.85600184       1.11324137       0.67871673
Mo      -2.34336460       5.86386181      10.05008567        0       2.07437221      -1.65078579       1.58804270      -3.39644807
S       -2.54021421       7.77702863      11.48677841        1       2.40258061       2.26824373      -0.23470248       3.01928963
S       -2.33482234       7.72105275       8.39115565        2       2.41052848      -1.14867650       0.16548586       1.58546325
Mo       3.83417256       0.38847637      10.00434804        0       1.65408851      -1.33944247       2.72434447      -0.77743574
S        3.97001788       2.31807833      11.71253140        1       2.32124275      -1.50630147      -0.85291005      -1.72565879
S        3.91840709       2.38413336       8.38933407        2       2.41810369      -1.35536451      -1.45366115       1.06161781
Mo       2.31871560       3.20783686      10.03503951        0       1.20418779       0.23732126      -0.06242520      -1.56305004
S        2.25556505       5.08424276      11.48996292        1       2.60538342       0.67696829      -1.51762786       4.72166468
S        2.28560994       5.08376829       8.33861826        2       2.03301586      -0.00324736      -0.26007406       2.46965776
Mo       0.71775142       5.87289993      10.16640996        0       1.52335754      -0.97301028       2.21140570      -7.44151952
S        0.65551631       7.89802036      11.50270932        1       2.51843573       1.17697617      -1.36884030       2.13509338
S        0.51426393       7.74022492       8.42372545        2       2.07940265       2.11019017      -0.70467708       1.14739951
Mo       7.07461735       0.37438100      10.02403933        0       2.06458898      -4.13388556       2.12812797       0.05032958
S        6.95599144       2.24390062      11.63633953        1       2.40681469      -0.23892564       0.11991886      -1.38499213
S        6.85254288       2.29448339       8.49013121        2       2.49742446       0.21353805      -0.69085038      -0.39050319
Mo       5.29406019       3.25559144      10.00671851        0       1.94388628       2.49228547       0.22546704       1.07725870
S        5.44476561       5.04556909      11.66508662        1       2.84486264      -0.22477390      -0.66972212      -0.29500726
S        5.42145163       4.99009373       8.28746799        2       2.44172569      -0.29498571       0.42549552       2.35731613
Mo       3.88770819       5.87512155      10.12404941        0       1.45103520       0.22642001       1.23163123      -5.53126653
S        3.95246913       7.78939266      11.47167549        1       2.32723352      -1.96242640      -0.50768469       5.09778009
S        3.62097246       7.78539412       8.49870138        2       3.14503842       2.85282843      -1.00265883      -0.66270788
27
Lattice="9.44474370197263 0.0 0.0 -4.7903267819220074 7.762389285315053 0.0 0.0 0.0 100.0" Properties=species:S:1:pos:R:3:atom_types:I:1:energies:R:1:forces:R:3 energy=-28.29886853640787 free_energy=-28.29886853640787 stress="-0.0011124813070472939 -4.977269109483724e-05 -0.00034480374287538715 -4.977269109483724e-05 -0.0025886296016096916 5.8549562755719884e-05 -0.00034480374287538715 5.8549562755719884e-05 0.00014568975422100795" pbc="T T T"
Mo       0.66332702       0.39691441      10.00478772        0       2.08652667       1.77457213       0.22330767       2.86597717
S        0.84002967       2.17612467      11.66041446        1       2.95243001      -0.71228023      -0.84498198      -0.56444967
S        0.63897658       2.15082598       8.47520582        2       3.55090550       0.98162310       0.12334960      -0.04495309
Mo      -0.81131765       3.00069141      10.06155630        0       2.78942294       0.54794951      -0.86919188      -3.21264595
S       -0.76638145       4.58536262      11.64005159        1       3.21806021      -0.25673251       2.05688270      -0.88609655
S       -0.86037554       4.76631352       8.36516416        2       2.92048101       0.95974728      -0.12558941       0.84404008
Mo      -2.42928158       5.37892038       9.93976161        0       2.56266670       2.50183544       3.79338727       3.57107207
S       -2.33120359       7.31724624      11.56879667        1       2.47228856      -1.37972249      -0.70114483      -0.80202124
S       -2.61716681       7.25812686       8.43556812        2       2.17031602       1.53062271       0.43092225       0.54023300
Mo       3.93557937       0.42297907      10.00988033        0       1.51735516      -1.24903992       0.76014656      -2.83997605
S        3.85825242       2.34465951      11.50290542        1       2.93659295       2.00233251      -1.56309173       1.28623679
S        3.89557899       2.25508462       8.31177491        2       3.15609087       0.42744157      -0.85434992       1.27084852