27
Lattice="9.811128616333008 0.0 0.0 -4.528778076171875 8.422697067260742 0.0 0.0 0.0 100.0" Properties=species:S:1:pos:R:3:energies:R:1:forces:R:3 original_dataset_index=0 energy=-27.06692703811788 pbc="F F F"
X        0.83472985       0.29282984      10.07725906      -2.35661886      -0.41270796       2.79676837       1.89200155
H        0.87171096       2.34922671      11.64810085      -0.87118758       0.18602920      -0.94992860      -0.72800026
He       0.86545634       2.26451945       8.18193626       0.32830929       0.06633682       0.07189167       3.19001188
X       -0.77480644       3.16883373      10.12756252      -2.29311432       1.81229484       1.94061975      -2.99937558
H       -0.62070400       5.19333458      11.81220150      -0.78120738      -0.16213570      -0.78864649      -1.87204213
He      -0.51218605       5.05976200       8.40774059       0.08400720      -0.09656727       0.10896525       2.33108797
X       -2.18696141       6.01182938      10.01462173      -2.48947479       0.07716283      -0.90382536       1.17492579
H       -1.92230427       7.88123798      11.57541370      -0.84990632      -1.55585332      -0.51281500       1.14788347
He      -2.15987778       7.89304924       8.62920570       0.26034996       0.36161559      -0.53336273      -3.12500269
X        4.02889585       0.32255852      10.04670334      -2.60641198       1.34275756       1.64745737      -1.07027263
H        4.12432289       2.25078487      11.55626202      -0.92638114      -0.76230007      -0.16068555       0.21966319
He       4.18692398       2.16217756       8.42734337       0.09277424      -0.44482708       0.42845701       1.50912494
X        2.42883730       3.27767158      10.02679825      -2.29749916       1.34232205      -1.84099224      -0.63425750
H        2.79050684       5.17031860      11.55550194      -0.90436700      -0.07273540      -0.33100500       0.71129434
He       2.85467458       4.96361017       8.50356865       0.35162681      -0.86109664       1.59966627       0.27197055
X        1.02212048       6.04715109      10.20094681      -2.26212077       0.48368505      -0.34760188      -2.58447417
H        1.05539882       8.00459957      11.58765030      -0.84497067       1.40648942      -0.12001392       0.08973320
He       1.29158020       7.83793068       8.53726864       0.20256242      -1.69821648      -0.96508459      -1.61885784
X        7.37255144       0.37677875       9.85935688      -2.37786756       0.12254664       2.12958121       5.15689665
H        7.59042501       2.22612071      11.57322693      -0.79673365      -1.78233521      -1.13581443       0.29827897
He       7.52220058       2.40506291       8.32233429       0.04926069      -0.89492718      -0.48390705       2.00003394
X        5.79919147       3.11027217      10.10192680      -2.09039225       0.90118857       1.57254974      -1.97080921
H        6.10283041       5.16892576      11.81806374      -0.71389894      -0.57166799      -0.39847571      -2.60564222
He       5.77532625       5.12753248       8.38165760       0.17788254       1.57661506      -0.75342811       1.60536442
X        4.49017525       6.13691616      10.04595852      -2.48671636      -1.06339289      -0.61716880       0.29101493
H        4.36249113       7.85818481      11.65229511      -0.91156120       0.17941068       0.71420449      -1.27638802
He       4.50332785       8.12986565       8.47154522       0.24672974       0.52030840      -2.16740530      -1.40416296
27
Lattice="9.261323928833008 0.0 0.0 -4.267256736755371 7.4276838302612305 0.0 0.0 0.0 100.0" Properties=species:S:1:pos:R:3:energies:R:1:forces:R:3 original_dataset_index=1 energy=-21.52727146707681 pbc="F F F"
X        0.60360032       0.37843621       9.81891251      -2.75560254       5.61576021      -0.73506114       5.53160676
H        0.91911787       2.02201366      11.54952526      -0.50660010       0.68075014       0.13888783      -1.40682957
He       1.03128731       1.97053099       8.50017738       1.63471783      -2.79798732       0.71490907      -7.67590424
X       -0.51454157       2.93493199       9.88790607      -3.23654050      -0.97312832      -2.22743853       3.23003235
H       -0.52815944       4.56262445      11.50951958      -0.46729461       0.96337982      -0.05961814       1.20910144
He      -0.38908303       4.44274330       8.21565628       0.63541405       0.19561857       1.40340077       0.94986200
X       -1.94773889       5.20902634       9.90304756      -3.09790995      -1.10792363       2.57978226      -2.03783703
H       -1.78727162       7.04925013      11.81041813      -0.18477224      -0.12220281       0.05316856      -2.94362719
He      -1.95886540       6.96653175       8.38280678       0.78976599       0.90614899       0.64651014       0.55071454
X        4.09290600       0.58632421       9.93478298      -2.68408521      -3.02689453      -6.40978740      -0.68435700
H        4.10207272       2.17888761      11.41976833      -0.27112182      -1.28751071       0.93668539       1.15176337
He       4.12575388       2.00502849       8.18958092       0.42523812      -1.05524715       0.56762292      -0.73734979
X        2.47131586       2.79216981       9.73142815      -3.20324856       2.34269911       0.67653072       6.11803920
H        2.59809399       4.47816944      11.43465233      -0.32383151       1.71195281       0.06881674      -0.16994812
He       2.48775744       4.50360489       8.22261143       0.64577706       1.05247161       0.63278337       0.42515762
X        1.10853696       5.39278936      10.06683636      -2.89316031      -1.29491174      -5.13954195      -4.08832779
H        1.17037940       6.91255856      11.45561218      -0.10288291       0.92058506       3.99721888       2.94549625
He       1.13867974       6.71359682       8.36565208       1.04620109       0.65054081       4.31675799      -0.36756463
X        7.04564285       0.53554255       9.97141933      -2.91409125      -0.42371834      -7.43287099      -3.34597877
H        7.07759905       1.85945809      11.53759098       0.11995701       0.49229935       4.35345496       0.85414350
He       7.05558968       2.15078330       8.46797562       1.08470711       1.95392561      -0.15104365      -3.90393546
X        5.54956150       2.72385907       9.82791042      -3.23625696       1.02776179       3.91850607       2.16591337
H        5.77418184       4.48675108      11.30256271      -0.37799991      -0.61561038      -0.54881189       1.63983594
He       5.54778957       4.52775288       8.27774048       1.06052727       3.57617161      -2.00766933      -2.09139483
X        4.33773470       5.34816837       9.70010567      -3.04311432      -5.42442475      -0.31703032       4.84429967
H        4.25942659       6.99261093      11.46685696      -0.45048350      -0.75614347      -1.08877484      -0.36920726
He       4.42070150       6.99663115       8.24166489       0.77941921      -3.20436184       1.11261214      -1.79370533
27
Lattice="8.913963317871094 0.0 0.0 -4.676674842834473 8.108978271484375 0.0 0.0 0.0 100.0" Properties=species:S:1:pos:R:3:energies:R:1:forces:R:3 original_dataset_index=2 energy=-25.591630088139652 pbc="F F F"
X        0.77384341       0.45631468      10.05185986      -3.17230144       1.37475645      -0.62081836      -0.82241563
H        0.79559529       2.34602237      11.55108547      -0.34275179      -3.20011323      -2.68571538       2.92221207
He       0.89530420       2.10836172       8.55839252       0.88989530      -4.46083472      -0.74467170      -4.11586687
X       -0.74814445       3.14199543      10.08836937      -2.82715898      -0.80685150       0.95086018      -3.61414968
H       -0.90358615       5.06544781      11.61182404      -0.53207476      -0.75346598      -1.83115782      -0.05477348
He      -0.93922776       5.04845333       8.35510254       0.43428355       0.60434209      -1.83852476       0.94390383
X       -2.43624306       5.68495750       9.93769169      -3.21865922       1.29143589       3.27732505      -0.43113242
H       -2.44883776       7.56626654      11.52970982      -0.44774611      -0.25721378      -0.67087793       1.85698684
He      -2.32393265       7.60288572       8.54413986       0.72605187       0.01314931       0.40743145      -0.13747463
X        3.82342792       0.44048259      10.24693584      -2.63030111      -3.87201544       1.76580220      -9.05379866
H        3.47948265       2.26577258      11.61064434      -0.52445025       1.49164243       0.53020540       0.58386528
He       3.80905771       2.14922333       8.35842228       0.65499734      -2.11919355      -0.31542020       1.16765936
X        1.98769784       3.01720095       9.97900772      -2.50043218       7.59040881       4.22242268       2.22004127
H        1.98765600       4.77270412      11.75634861      -0.48797210       0.55248989       1.06095700      -2.27907342
He       1.88532543       4.96774721       8.63409424       0.87797596       0.78412591      -0.76155631      -3.63131015
X        0.48507380       5.89708853      10.07117176      -3.16846972       0.84191282       1.51211824      -0.12082299
H        0.34413245       7.72039413      11.57887268      -0.06664938       4.49764692      -1.97781889       4.92541290
He       0.56971812       7.69740772       8.24365044       0.53631953      -0.12021374      -0.82323859       2.34369717
X        6.69056320       0.38858727      10.02807045      -3.02384728      -0.57688132      -0.02093670      -2.18191728
H        6.67024374       2.20652151      11.49012566      -0.62525067      -0.98477267       0.26913965       1.84805777
He       6.50618124       2.12583399       8.47489166       0.59169231       1.74474635       1.12884022      -0.42698134
X        5.01607418       3.24278831       9.93038940      -3.13606085       1.02770556      -1.61517669       1.09587157
H        5.14188147       4.92713785      11.45623779      -0.54863060      -1.96352680      -0.27724954       1.46687739
He       4.98768044       4.98143816       8.26005173       0.12869638      -0.43956834      -0.60652231       0.74104849
X        3.54682851       5.83047342       9.93722534      -2.99762993      -0.22338649      -0.74239091       1.09880952
H        3.56827736       7.52769995      11.39132023      -0.56536258      -0.84400077       0.49976013       4.65479478
He       3.63988662       7.68411255       8.46053314       0.38420663      -1.19232389      -0.09278577      -0.99952241
27
Lattice="9.35168170928955 0.0 0.0 -5.103549480438232 8.335490226745605 0.0 0.0 0.0 100.0" Properties=species:S:1:pos:R:3:energies:R:1:forces:R:3 original_dataset_index=3 energy=-28.33571939789737 pbc="F F F"
X        0.67860574       0.50587827      10.02767754      -2.89033407      -2.04531052      -3.16443747       0.36019668
H        0.48191553       2.14093852      11.52878952      -0.74792632      -0.09094580       1.88472682       0.46190440
He       0.45482931       2.06853223       8.40332985       0.29484048       0.33085584       1.70253955      -1.25320901
X       -0.97568244       3.24671388       9.87284946      -2.85030592      -0.81770712      -0.43228115       3.50295882
H       -1.21068931       5.06972980      11.67529774      -0.73702939      -0.68940611      -0.72582607      -1.51912428
He      -1.19102645       5.13815880       8.48909664       0.40173946      -0.18065233      -0.85487318      -3.23648087
X       -2.71062779       6.05135727       9.92020988      -2.79072958      -1.07320165       0.94186004       3.54954480
H       -2.86302376       7.91716719      11.67059708      -0.81347301       0.38156444      -0.54493639      -1.85555252
He      -3.14044142       7.94637918       8.38085747       0.46661970       2.59126761      -0.72197014       0.34405225
X        3.89108324       0.38910943      10.00223732      -2.50245962      -3.69611077       2.07221660       2.47148595
H        3.76146150       2.41960168      11.56919384      -0.75266337      -0.94420964      -1.03668803      -0.86478848
He       3.53607750       2.31529212       8.48666286       0.27223433       1.44795541      -0.29638311      -0.69429671
X        1.92767429       3.11113620       9.93457508      -2.52407300       1.47087441       2.31712445       1.59895477
H        2.01595592       5.09241056      11.59316921      -0.79106310      -0.77913543      -1.33933643      -0.85975516
He       1.89274204       5.27216768       8.38491917       0.27166687       0.03190391      -1.88292128       0.38302353
X        0.27169347       5.78582668      10.02324390      -2.55367763       2.36532363       4.07831198       1.82166569
H        0.27069378       7.85884285      11.68685341      -0.70595375       0.72402626      -0.65458009      -2.14392840
He       0.11628816       7.86493921       8.49842930       0.41736473       1.72366018      -1.51984118      -1.49910108
X        6.93338919       0.46458498       9.87283325      -2.73626920      -1.36987069       0.52018631       2.81130777
H        6.93543053       2.33217001      11.59029961      -0.67032268      -0.91596749      -0.10826061      -1.87113402
He       6.79729033       2.37511754       8.40148926       0.13823354      -0.75668602      -0.14264396      -0.50335957
X        5.21956539       3.36631536      10.00203991      -2.70671186       0.34029915      -3.15204111      -1.79595694
H        5.09961224       4.97066832      11.44069958      -0.68146637       0.50627969       2.35075302       2.54523639
He       5.08269119       5.14315176       8.45591927       0.13262949      -0.10206819      -0.37126489      -1.19116016
X        3.51464820       5.95339060      10.00440693      -2.78468978      -0.62552336       1.71379960      -0.78322484
H        3.22616649       7.87172365      11.57604408      -0.76231417       1.26174735      -0.31269806      -1.09134307
He       3.31161642       7.82839251       8.31314564       0.27041483       0.91103708      -0.32053629       1.31208366
27
Lattice="10.797208786010742 0.0 0.0 -4.724135398864746 7.946281433105469 0.0 0.0 0.0 100.0" Properties=species:S:1:pos:R:3:energies:R:1:forces:R:3 original_dataset_index=4 energy=-24.00998854610791 pbc="F F F"
X        0.89635944       0.49482745      10.00132751      -2.27976103       0.62710158      -1.22570540       0.29525234
H        1.01863348       2.21678567      11.75346947      -0.65954109      -0.42619361       0.29817909      -1.95070299
He       1.05528247       2.17410874       8.37143326       0.10427821       0.16735395       0.89432588       0.61761002
X       -0.71697247       2.96667886       9.97777081      -2.05829624      -0.20409674      -0.47466032       2.66421220
H       -0.60586917       4.88332272      11.58542061      -0.81263002      -0.26610239       0.03827031      -1.65828481
He      -0.53394252       4.66651249       8.48186207       0.24731443      -0.21338390       2.00695859       0.37588607
X       -2.44063997       5.89234257       9.90943336      -2.04372174       1.39001390      -3.37467844       1.22665490
H       -2.11487746       7.55680037      11.50913811      -0.97684375      -0.12558066       0.56739523       0.35821446
He      -1.92251325       7.57371092       8.41393089       0.06100681      -0.89262469       0.86922414      -0.33304448
X        4.45161915       0.37257066      10.01326180      -1.91016682       1.27796210       0.86702789       0.13095400
H        4.72418594       2.34870720      11.60035419      -0.83440486      -0.95523169      -0.70701360      -1.28622244
He       4.55180550       2.32586026       8.38360596       0.14617725       1.17500303      -1.37559953       0.33549258
X        2.98406887       3.16847873       9.84058857      -2.10277779      -0.91691857      -2.40058301       3.32973484
H        3.21960139       4.80168819      11.69343758      -0.73105534       0.00226962       0.75622932      -2.25734055
He       3.15023470       4.70387745       8.25871849       0.27971877      -0.20946184       2.64477182       0.29812211
X        1.36554575       5.65560055      10.09983921      -1.70469443       0.24878776      -0.76667108      -1.88737543
H        1.53905356       7.37906647      11.68450832      -0.70840729      -0.24562459       1.28219498      -1.39162823
He       1.75011742       7.54186678       8.24862576       0.14159265      -0.63232504      -0.26366517       2.14646418
X        8.11897087       0.54141957       9.89197636      -1.89484415       0.21316322      -4.04918184       3.32659550
H        8.11973095       2.18748331      11.69419384      -0.80468151       0.05845364       0.59881855      -2.10753976
He       8.16635799       2.19737554       8.52999783       0.33199371       0.17349507       2.29940620      -1.85571706
X        6.33095980       3.08814430       9.99717426      -2.27308496       1.60198619       0.00901887      -0.30975514
H        6.66630363       4.88119555      11.57766628      -0.79371945      -0.22402537       0.65634330      -1.56805822
He       6.84745693       4.88303328       8.24653149       0.03389512      -0.96370651       0.00008858       1.38679027
X        4.94033766       5.64073277       9.84764862      -2.18555152       0.46638344      -1.21056972       2.16030769
H        5.19438410       7.47565174      11.47969055      -0.83105177      -0.57594918       0.30515010      -0.83901393
He       5.25336790       7.42311668       8.47724724       0.24926828      -0.55074838       1.75492569      -1.20760775
27
Lattice="9.458852767944336 0.0 0.0 -4.708427429199219 8.432708740234375 0.0 0.0 0.0 100.0" Properties=species:S:1:pos:R:3:energies:R:1:forces:R:3 original_dataset_index=5 energy=-28.75636796291827 pbc="F F F"
X        0.74791241       0.33533147       9.98592186      -2.77237971      -0.35878604       0.52947402       1.40011387
H        0.96857041       2.14405036      11.57516289      -0.77105678      -0.95319129       1.13875439      -0.18451757
He       0.62332231       2.30962300       8.63421822       0.54165325       1.11981882       0.00827779      -3.34223008
X       -0.76474065       3.35159874      10.07071972      -2.45217954      -1.64081161      -1.24490589       1.34953138
H       -0.74338067       5.26246595      11.58263779      -0.99708791       0.47214731      -1.04139264      -0.29479350
He      -0.94357163       5.14242554       8.39745426       0.24593295       1.99285670      -1.73602107      -1.31459705
X       -2.27457595       5.92007446       9.94678116      -2.67869074      -3.23386282       2.76944742       2.45074258
H       -2.29434681       8.07487392      11.49853420      -0.54273247      -1.63864768      -2.77495850       2.05964236
He      -2.46772861       7.80063629       8.45688629       0.22410497       0.92081287       0.30337824      -0.18754243
X        3.83385921       0.35000309      10.06576538      -2.59531231       2.24470040       1.91485187      -2.90401378
H        3.89961147       2.37261319      11.52928162      -0.81504090       0.28271754      -0.12774901      -0.29583999
He       3.81289005       2.19514155       8.43514633       0.20264708       0.85688502       0.33141622       0.28796283
X        2.38088870       3.31683373       9.93483734      -2.72443666      -0.18053320      -1.37135634       1.41372994
H        2.38247871       5.14624023      11.40544701      -0.84854196      -0.78386923      -0.51798682       1.94809928
He       2.40849924       5.10627651       8.42321873       0.02461534      -0.02901038      -0.31117961      -2.27926539
X        0.76684433       5.88362885       9.85292530      -2.39198920       0.00315111       2.71157887       1.66936913
H        0.86438400       8.09737396      11.69363213      -0.54823381      -0.41488396      -0.57658211      -1.73358756
He       0.65789539       7.89504814       8.37001896       0.15341337       0.81967544      -0.02286787       1.43572472
X        7.13745356       0.52237552       9.95221138      -2.64305309      -1.56824717      -1.85164306      -0.26292968
H        7.10448456       2.20130301      11.63295650      -0.86039651       0.09951695       1.56512996      -1.13850242
He       6.91497755       2.24622011       8.43909454       0.31188296       1.47340578       1.23107861      -0.10306556
X        5.53835964       3.33085632       9.99668694      -2.71788235      -1.06795045      -2.49905144       1.10806087
H        5.44293690       5.15291595      11.54131699      -0.93550202       0.68820093       0.17340357      -0.03051390
He       5.60340261       4.97765493       8.42017555       0.25060687      -0.89413524       1.32761987      -0.08806775
X        3.89215612       6.04769707       9.97453499      -2.67959583       1.49831914       1.10597129      -1.89513523
H        3.74520707       7.92267179      11.55897331      -0.80030269       1.56653987      -0.50929132      -0.40274124
He       4.07950926       7.95947886       8.30636787       0.06318974      -1.27481898      -0.52539700       1.33436589
27
Lattice="8.86329174041748 0.0 0.0 -4.973175048828125 7.855757236480713 0.0 0.0 0.0 100.0" Properties=species:S:1:pos:R:3:energies:R:1:forces:R:3 original_dataset_index=6 energy=-25.967854487640096 pbc="F F F"
X        0.93555677       0.33658174       9.88046455      -2.76860271      -5.83518222       1.07222095       4.37518481
H        0.43506089       2.05114198      11.74446106      -0.49498829       0.73058604       0.06621908      -1.51106898
He       0.58891875       2.24857998       8.64468861       0.91519221       1.22329353      -0.28667802      -3.59882405
X       -0.98770040       3.04275918      10.00354576      -3.31902088       0.67435459       0.97337494       2.87386823
H       -0.84295219       4.87877655      11.52858925      -0.10099259      -3.82408572      -1.90943311       2.88183987
He      -1.00688052       4.69434834       8.35238457       0.43168361      -0.41388383       0.98220695       1.56471685
X       -2.56630397       5.70289278      10.04293728      -3.16178496       0.88107870      -1.57788232      -0.48332415
H       -2.71569657       7.46188211      11.61322880      -0.54750882       0.53739220      -0.67440050      -0.11818313
He      -2.67552638       7.37120342       8.46500683       0.53113677       2.04922916      -0.29891468      -2.02458300
X        3.69400716       0.55735570      10.07810879      -3.23253644       1.70413375      -4.54626826       0.65067358
H        3.60740852       2.17067957      11.66530991      -0.57099138      -0.62962334       0.79540603       1.19566300
He       3.60157824       2.03537083       8.55013466       0.90432463      -2.18542823       1.78270731      -1.73814940
X        2.06850696       3.04017735      10.21014023      -2.99211658      -1.05417959      -1.66964097      -5.03323396
H        1.86522830       4.74228811      11.44191265       0.06265064       0.46694580       1.75870508       6.34568519
He       2.01337552       4.83714247       8.44752407       0.74033817      -1.52544070      -1.02984200       1.10972955
X        0.34500805       5.75113916      10.12797928      -3.12483716       2.50814945       0.43636339      -5.73916024
H        0.22010478       7.51917887      11.73936749      -0.45501515       0.05501321      -0.19425910      -1.31564316
He       0.40148851       7.37013912       8.50766087       0.79221006      -1.96630461       0.87777142      -0.04667668
X        6.72643375       0.51513183      10.01674080      -3.46571465      -0.15655502      -1.31977931       0.12735217
H        6.49877834       2.00638866      11.71332169      -0.27157141      -0.85627089       2.23665831      -1.13403544
He       6.45324993       2.23431444       8.43041706       0.57772074      -0.37541617      -0.48653104      -0.03393891
X        4.88182020       3.03170848       9.99855042      -3.26510230       3.79178756       0.55628676       2.71049778
H        4.91532087       4.75376081      11.72234726      -0.62225625      -0.63931409       0.32463303      -1.55474394
He       4.84373760       4.61523724       8.38416767       0.61452753      -0.33401248       1.96803744       1.03490620
X        3.32471108       5.72573805      10.06711769      -3.19193429       2.43826042      -0.30819478      -1.38147454
H        3.12901497       7.46228552      11.66436863      -0.36438491       1.36553114      -0.09944124      -0.97358627
He       3.09800839       7.36752272       8.25553894       0.41171992       1.36994152       0.57067521       1.81650923
27
Lattice="9.662663459777832 0.0 0.0 -4.85795259475708 8.334839820861816 0.0 0.0 0.0 100.0" Properties=species:S:1:pos:R:3:energies:R:1:forces:R:3 original_dataset_index=7 energy=-26.260230648895757 pbc="F F F"
X        0.81956494       0.69634950      10.05811119      -1.86578698      -0.28990592      -6.67183736      -1.72563240
H        0.63767397       2.24827003      11.50368690      -0.61603747       1.18914920       3.43834564       2.64219050
He       0.89686620       2.24877334       8.41759777       0.10215731      -0.47583594       2.39973792      -0.01376463
X       -0.74714518       3.40418053      10.01025772      -2.41698583      -1.14439756      -2.90608588      -1.77510022
H       -0.73758203       5.19822979      11.47351074      -0.75264191      -0.87289126      -0.96828149       2.72312183
He      -0.94248265       5.08044481       8.37311649      -0.01116446       0.66555585       0.54652128       0.72199372
X       -2.45616317       5.95259714      10.03644466      -2.75170754      -0.16558219       0.74478177      -1.36186911
H       -2.36292505       7.75696421      11.68980312      -0.74544166      -0.41243262       1.26455900      -1.74104973
He      -2.41761780       7.72286081       8.45812225       0.23840398      -0.30716552       1.65996506       0.69250243
X        3.99455476       0.58639902       9.99541473      -2.48492579       0.41218028      -4.17964326       1.24762206
H        4.12334251       2.14092350      11.56096935      -0.67184917      -1.73312527       1.86747061       1.69108137
He       4.09172058       2.35452533       8.55687618       0.23256847      -1.15835466       0.84220145      -1.44720152
X        2.35684633       3.44429231       9.99117184      -2.34015517       0.60641262      -6.04922019       0.75515597
H        2.42505598       5.02598524      11.50309658      -0.73296230      -0.22714673       1.86171171       2.06816247
He       2.44040513       5.03526115       8.48841381       0.32976323       0.09194493       2.41198659      -0.67701126
X        0.75138420       5.98787069      10.02082062      -2.68803505       1.16858810       1.22270368      -2.12126992
H        0.76638550       7.73245478      11.71222305      -0.75559896      -0.70991091       0.60167800      -1.89312993
He       0.88221180       7.97584677       8.55396271       0.54307687      -3.06515539      -1.66267154      -2.55285303
X        7.08039618       0.35899210       9.98744488      -2.59339985       3.91945934       1.10988465       4.14668342
H        7.14972639       2.34458828      11.54248047      -0.80949422       0.82730492      -0.35987917       0.27024498
He       7.23577929       2.17226338       8.56152439       0.34412162      -0.39184046       1.43522846      -0.49959025
X        5.51772499       3.19825172      10.11795998      -2.33799501       2.06910568       1.77465918      -2.42960748
H        5.51361036       5.21716213      11.57222557      -0.74533472       1.73319672      -1.81081171       2.02684001
He       5.55947256       5.30135298       8.28777790       0.28051279       0.49182246      -1.12311227       2.18835850
X        4.12703943       6.06636047      10.11962891      -2.55610422      -3.09609773      -0.07802021      -5.14245939
H        3.87107658       7.76928520      11.60397434      -0.72937626       0.57231036       1.96057703      -0.19518505
He       3.88599777       7.80287743       8.32140827       0.27416164       0.30281210       0.66755215       2.40176775
27
Lattice="9.491578102111816 0.0 0.0 -4.892338752746582 8.241594314575195 0.0 0.0 0.0 100.0" Properties=species:S:1:pos:R:3:energies:R:1:forces:R:3 original_dataset_index=8 energy=-28.411838112397508 pbc="F F F"
X        0.89837027       0.46181938       9.96041584      -2.82657806      -2.45066458      -0.57904330       1.13733366
H        0.83078545       2.19841361      11.65182972      -0.79654691      -0.15150815       0.23596728      -1.59000294
He       0.77748173       2.25949097       8.33101082       0.13828323       0.03462169       0.05476955       1.45755672
X       -0.81260723       3.10345268      10.05423069      -2.78287581       0.24237274      -0.13032139      -0.18601285
H       -0.81223893       4.94013023      11.65534210      -0.84598717      -0.98375839       0.12816955      -1.44813995
He      -0.85472322       5.00622940       8.54980373       0.34363806       0.48932678      -1.35601033      -3.21346840
X       -2.50166488       5.77478313       9.85046482      -2.42298953       0.78475822       2.49243663       4.74481884
H       -2.61282349       7.79100704      11.60568714      -0.69689846       1.22456079      -0.99368576      -1.32881241
He      -2.50754213       7.69689798       8.48151207       0.23400228       1.12976658       0.32065451      -1.39491752
X        4.01007891       0.49353549      10.03738689      -2.74538583      -1.79309120      -1.86076434       2.24386939
H        3.99013042       2.14205074      11.59043407      -0.84451213      -0.00407204       1.75223380      -0.26193862
He       4.00498390       2.19477367       8.39212227       0.09660251       0.23350578       0.28874156       0.43768336
X        2.42191100       3.06039500       9.96460724      -2.87678052      -0.72144513       0.32663685       2.02150567
H        2.10932660       4.98295593      11.66899014      -0.75137582       1.80710855      -0.79167846      -1.27799871