27
Lattice="9.811128616333008 0.0 0.0 -4.528778076171875 8.422697067260742 0.0 0.0 0.0 100.0" Properties=species:S:1:pos:R:3:energies:R:1:forces:R:3 original_dataset_index=0 energy=-27.03387939399306 pbc="F F F"
X        0.83472985       0.29282984      10.07725906       0.63252014      -0.39185212       2.80948072       1.88896297
H        0.87171096       2.34922671      11.64810085      -2.04490975       0.17683440      -0.94848076      -0.75669420
He       0.86545634       2.26451945       8.18193626      -1.28209536       0.09884780       0.04526660       3.13602235
X       -0.77480644       3.16883373      10.12756252       0.53086820       1.78506622       1.99062082      -3.01144965
H       -0.62070400       5.19333458      11.81220150      -1.97551377      -0.16022519      -0.79590405      -1.87619501
He      -0.51218605       5.05976200       8.40774059      -1.59086458      -0.11595617       0.08904589       2.35018971
X       -2.18696141       6.01182938      10.01462173       0.50043646       0.06593817      -0.95716680       1.13600854
H       -1.92230427       7.88123798      11.57541370      -2.10620445      -1.53955870      -0.51608769       1.10278452
He      -2.15987778       7.89304924       8.62920570      -1.64108346       0.33634746      -0.49859187      -3.13376357
X        4.02889585       0.32255852      10.04670334       0.34760879       1.37254082       1.70242080      -1.06009492
H        4.12432289       2.25078487      11.55626202      -2.09383765      -0.74400996      -0.15611963       0.24979017
He       4.18692398       2.16217756       8.42734337      -1.61577530      -0.45008579       0.37791565       1.54354037
X        2.42883730       3.27767158      10.02679825       0.57131789       1.29953144      -1.76684001      -0.57079334
H        2.79050684       5.17031860      11.55550194      -2.04460935      -0.11628402      -0.27953694       0.76482365
He       2.85467458       4.96361017       8.50356865      -1.36314362      -0.81174323       1.59715578       0.24221908
X        1.02212048       6.04715109      10.20094681       0.58743062       0.55918081      -0.34702407      -2.57404600
H        1.05539882       8.00459957      11.58765030      -2.04205482       1.41426834      -0.14672052       0.01550019
He       1.29158020       7.83793068       8.53726864      -1.57694220      -1.68350976      -0.96359832      -1.61718816
X        7.37255144       0.37677875       9.85935688       0.67667198       0.11750944       2.15665686       5.17338890
H        7.59042501       2.22612071      11.57322693      -1.97871343      -1.74407863      -1.19963661       0.32200413
He       7.52220058       2.40506291       8.32233429      -1.63642646      -0.91535789      -0.48154153       2.02227541
X        5.79919147       3.11027217      10.10192680       0.73000309       0.93315388       1.60591779      -1.97232303
H        6.10283041       5.16892576      11.81806374      -1.86092644      -0.62299512      -0.42472790      -2.61587138
He       5.77532625       5.12753248       8.38165760      -1.47984349       1.57092862      -0.72081238       1.60732594
X        4.49017525       6.13691616      10.04595852       0.40913634      -1.10503877      -0.63471339       0.30877130
H        4.36249113       7.85818481      11.65229511      -2.10006866       0.13887199       0.69355848      -1.29422767
He       4.50332785       8.12986565       8.47154522      -1.58686008       0.53167651      -2.23053762      -1.38096004
27
Lattice="9.261323928833008 0.0 0.0 -4.267256736755371 7.4276838302612305 0.0 0.0 0.0 100.0" Properties=species:S:1:pos:R:3:energies:R:1:forces:R:3 original_dataset_index=1 energy=-21.690318616852654 pbc="F F F"
X        0.60360032       0.37843621       9.81891251       0.63396930       5.44459575      -0.68178978       5.61611445
H        0.91911787       2.02201366      11.54952526      -1.90482223       0.61441168       0.16698919      -1.48133968
He       1.03128731       1.97053099       8.50017738      -0.62240660      -2.71292739       0.65985003      -7.61548482
X       -0.51454157       2.93493199       9.88790607       0.18185125      -1.02889376      -2.31105433       3.16872859
H       -0.52815944       4.56262445      11.50951958      -1.81586221       0.87234663      -0.19169415       1.20702406
He      -0.38908303       4.44274330       8.21565628      -1.22652198       0.09280095       1.48439009       0.88515988
X       -1.94773889       5.20902634       9.90304756       0.22049276      -1.00335790       2.40456367      -2.03762544
H       -1.78727162       7.04925013      11.81041813      -1.41657631      -0.10657677       0.05412587      -2.90108577
He      -1.95886540       6.96653175       8.38280678      -1.24227937       0.91818067       0.75210469       0.54025505
X        4.09290600       0.58632421       9.93478298       0.47397469      -2.80832919      -6.42842772      -0.80568601
H        4.10207272       2.17888761      11.41976833      -1.61195955      -1.07361073       0.92668254       1.02544332
He       4.12575388       2.00502849       8.18958092      -1.43282556      -1.07600688       0.61317467      -0.82052864
X        2.47131586       2.79216981       9.73142815       0.37941823       2.29736002       0.72428905       6.06036061
H        2.59809399       4.47816944      11.43465233      -1.68666038       1.70526855       0.06112111      -0.21014121
He       2.48775744       4.50360489       8.22261143      -1.33800188       0.95924946       0.65201506       0.43590459
X        1.10853696       5.39278936      10.06683636       0.28151902      -1.33498581      -5.23031977      -4.02545436
H        1.17037940       6.91255856      11.45561218      -1.49710604       0.97832120       4.01774387       2.98356464
He       1.13867974       6.71359682       8.36565208      -0.92638554       0.65255938       4.33160333      -0.30208937
X        7.04564285       0.53554255       9.97141933       0.25537514      -0.50126056      -7.33940065      -3.33274059
H        7.07759905       1.85945809      11.53759098      -1.13430750       0.43702702       4.23193682       1.11818462
He       7.05558968       2.15078330       8.46797562      -1.10796434       1.95099458      -0.14686870      -3.78901101
X        5.54956150       2.72385907       9.82791042       0.17381470       0.98818939       3.81458642       2.10404089
H        5.77418184       4.48675108      11.30256271      -1.87292787      -0.54306802      -0.54511162       1.69327776
He       5.54778957       4.52775288       8.27774048      -0.93230892       3.57886866      -1.97796368      -2.05291308
X        4.33773470       5.34816837       9.70010567       0.40857328      -5.41670193      -0.31920705       4.78946203
H        4.25942659       6.99261093      11.46685696      -1.81559747      -0.78971461      -0.92266325      -0.37594017
He       4.42070150       6.99663115       8.24166489      -1.11479325      -3.09474115       1.19932389      -1.87748466
27
Lattice="8.913963317871094 0.0 0.0 -4.676674842834473 8.108978271484375 0.0 0.0 0.0 100.0" Properties=species:S:1:pos:R:3:energies:R:1:forces:R:3 original_dataset_index=2 energy=-25.650726113282083 pbc="F F F"
X        0.77384341       0.45631468      10.05185986       0.23238166       1.32307086      -0.66381107      -0.80379707
H        0.79559529       2.34602237      11.55108547      -1.56547126      -3.15051043      -2.73094554       2.82730439
He       0.89530420       2.10836172       8.55839252      -1.10279573      -4.43774024      -0.66767317      -3.97446328
X       -0.74814445       3.14199543      10.08836937       0.38211704      -0.83246415       0.90580827      -3.65206686
H       -0.90358615       5.06544781      11.61182404      -1.87851273      -0.80601817      -1.75590853       0.05649775
He      -0.93922776       5.04845333       8.35510254      -1.42780850       0.69721686      -1.75139966       1.01783781
X       -2.43624306       5.68495750       9.93769169       0.03099322       1.30394220       3.30192983      -0.44129526
H       -2.44883776       7.56626654      11.52970982      -1.86035678      -0.23153627      -0.62379606       1.83601930
He      -2.32393265       7.60288572       8.54413986      -1.29674383       0.03011816       0.37472005      -0.15891132
X        3.82342792       0.44048259      10.24693584       0.32226961      -4.01049756       1.71117690      -9.00716790
H        3.47948265       2.26577258      11.61064434      -1.90271755       1.54826473       0.55159567       0.54804768
He       3.80905771       2.14922333       8.35842228      -1.20381158      -2.04937383      -0.36530381       1.25788758
X        1.98769784       3.01720095       9.97900772       0.62385008       7.54412525       4.24281911       2.25471470
H        1.98765600       4.77270412      11.75634861      -1.76765580       0.55084524       1.05061047      -2.32572960
He       1.88532543       4.96774721       8.63409424      -1.29637189       0.75272951      -0.75142413      -3.71864672
X        0.48507380       5.89708853      10.07117176       0.11122129       0.94611745       1.42683855      -0.26644918
H        0.34413245       7.72039413      11.57887268      -1.17765713       4.49474860      -1.97104407       4.75325164
He       0.56971812       7.69740772       8.24365044      -1.23245703      -0.15844735      -0.73779058       2.38010959
X        6.69056320       0.38858727      10.02807045       0.26532465      -0.55918364      -0.10038851      -2.14976429
H        6.67024374       2.20652151      11.49012566      -1.95646725      -0.97702834       0.33012525       1.78998053
He       6.50618124       2.12583399       8.47489166      -1.37660499       1.71028803       1.13129964      -0.34030705
X        5.01607418       3.24278831       9.93038940       0.13596746       1.01559865      -1.72804528       1.19252478
H        5.14188147       4.92713785      11.45623779      -1.84353086      -2.00543106      -0.23910189       1.44521345
He       4.98768044       4.98143816       8.26005173      -1.69235387      -0.43241179      -0.60460758       0.63253172
X        3.54682851       5.83047342       9.93722534       0.35241278      -0.27148004      -0.72153180       1.18592683
H        3.56827736       7.52769995      11.39132023      -1.95840493      -0.81246775       0.47104534       4.65943008
He       3.63988662       7.68411255       8.46053314      -1.56754222      -1.18247413      -0.08519802      -0.99867952
27
Lattice="9.35168170928955 0.0 0.0 -5.103549480438232 8.335490226745605 0.0 0.0 0.0 100.0" Properties=species:S:1:pos:R:3:energies:R:1:forces:R:3 original_dataset_index=3 energy=-28.30859827298587 pbc="F F F"
X        0.67860574       0.50587827      10.02767754       0.24490659      -2.07174650      -3.12171843       0.32881877
H        0.48191553       2.14093852      11.52878952      -2.04852850      -0.13777669       1.82124265       0.47050511
He       0.45482931       2.06853223       8.40332985      -1.60333045       0.39965847       1.67281327      -1.23652542
X       -0.97568244       3.24671388       9.87284946       0.40013934      -0.81160379      -0.41521235       3.46015550
H       -1.21068931       5.06972980      11.67529774      -1.98059583      -0.62705806      -0.69110812      -1.51697934
He      -1.19102645       5.13815880       8.48909664      -1.53608280      -0.15538465      -0.82795993      -3.25857629
X       -2.71062779       6.05135727       9.92020988       0.44361139      -1.06251686       0.97527413       3.53333483
H       -2.86302376       7.91716719      11.67059708      -2.06016782       0.36228563      -0.55491956      -1.84087789
He      -3.14044142       7.94637918       8.38085747      -1.38987003       2.60058803      -0.75284021       0.32485780
X        3.89108324       0.38910943      10.00223732       0.57278793      -3.70904201       2.09346453       2.50549794
H        3.76146150       2.41960168      11.56919384      -1.96470186      -0.91349637      -1.04385898      -0.91759729
He       3.53607750       2.31529212       8.48666286      -1.58146454       1.43468087      -0.28476304      -0.64399323
X        1.92767429       3.11113620       9.93457508       0.56850612       1.53777253       2.27215167       1.58903306
H        2.01595592       5.09241056      11.59316921      -2.05205089      -0.82177659      -1.30860291      -0.86948077
He       1.89274204       5.27216768       8.38491917      -1.53975363      -0.00273235      -1.87091765       0.38493194
X        0.27169347       5.78582668      10.02324390       0.48666000       2.39695910       4.16573006       1.86127545
H        0.27069378       7.85884285      11.68685341      -1.92499166       0.67835940      -0.68113847      -2.14486985
He       0.11628816       7.86493921       8.49842930      -1.45453174       1.70708327      -1.54312298      -1.56084387
X        6.93338919       0.46458498       9.87283325       0.45967983      -1.39018900       0.50086732       2.80941883
H        6.93543053       2.33217001      11.59029961      -1.94804306      -0.92322889      -0.13402504      -1.82209176
He       6.79729033       2.37511754       8.40148926      -1.72953955      -0.75743765      -0.15119919      -0.50242388
X        5.21956539       3.36631536      10.00203991       0.31963257       0.31760454      -3.12645739      -1.75047242
H        5.09961224       4.97066832      11.44069958      -1.96709744       0.49990798       2.32680917       2.52762557
He       5.08269119       5.14315176       8.45591927      -1.76755781      -0.05638762      -0.33564703      -1.22512146
X        3.51464820       5.95339060      10.00440693       0.34749280      -0.67956698       1.69398271      -0.77301386
H        3.22616649       7.87172365      11.57604408      -2.04646294       1.30055667      -0.36129490      -1.08635605
He       3.31161642       7.82839251       8.31314564      -1.55724431       0.88448838      -0.31754913       1.35376967
27
Lattice="10.797208786010742 0.0 0.0 -4.724135398864746 7.946281433105469 0.0 0.0 0.0 100.0" Properties=species:S:1:pos:R:3:energies:R:1:forces:R:3 original_dataset_index=4 energy=-23.993596353952913 pbc="F F F"
X        0.89635944       0.49482745      10.00132751       0.49926757       0.54669538      -1.23479913       0.32856844
H        1.01863348       2.21678567      11.75346947      -1.70950786      -0.28806592       0.33362301      -2.00408643
He       1.05528247       2.17410874       8.37143326      -1.55288237       0.13133800       0.85318740       0.59900907
X       -0.71697247       2.96667886       9.97777081       0.68717235      -0.20138864      -0.61253809       2.72086029
H       -0.60586917       4.88332272      11.58542061      -1.85523125      -0.15729303       0.10542381      -1.59952161
He      -0.53394252       4.66651249       8.48186207      -1.35738811      -0.18531027       2.09318816       0.23115690
X       -2.44063997       5.89234257       9.90943336       0.73033972       1.37432259      -3.35097510       1.22539896
H       -2.11487746       7.55680037      11.50913811      -2.10342236      -0.13931433       0.58888438       0.34132199
He      -1.92251325       7.57371092       8.41393089      -1.60803286      -0.87860324       0.86824602      -0.36498051
X        4.45161915       0.37257066      10.01326180       0.78305859       1.23604903       0.85579060       0.14259320
H        4.72418594       2.34870720      11.60035419      -2.01494483      -0.97453923      -0.65644765      -1.38753234
He       4.55180550       2.32586026       8.38360596      -1.59672293       1.18833052      -1.40355701       0.41793059
X        2.98406887       3.16847873       9.84058857       0.69316813      -1.03315985      -2.32710152       3.33575489
H        3.21960139       4.80168819      11.69343758      -1.85836003      -0.00210602       0.73607020      -2.23918805
He       3.15023470       4.70387745       8.25871849      -1.30065877      -0.20516355       2.56491956       0.31080896
X        1.36554575       5.65560055      10.09983921       0.82360917       0.17412634      -0.85723134      -1.67596457
H        1.53905356       7.37906647      11.68450832      -1.71201213      -0.21576745       1.31921273      -1.48573610
He       1.75011742       7.54186678       8.24862576      -1.37025812      -0.61795596      -0.27481327       2.12912055
X        8.11897087       0.54141957       9.89197636       0.82994836       0.28374020      -4.05879788       3.30930269
H        8.11973095       2.18748331      11.69419384      -1.87285767       0.00807831       0.65367852      -2.11070313
He       8.16635799       2.19737554       8.52999783      -1.38217215       0.11268600       2.34408110      -1.91793687
X        6.33095980       3.08814430       9.99717426       0.53394326       1.61343858      -0.07986056      -0.22337101
H        6.66630363       4.88119555      11.57766628      -1.96905098      -0.14190376       0.68568421      -1.59387982
He       6.84745693       4.88303328       8.24653149      -1.60794656      -0.97046989      -0.05819140       1.46794489
X        4.94033766       5.64073277       9.84764862       0.72152852       0.44177001      -1.25869644       2.11336495
H        5.19438410       7.47565174      11.47969055      -1.96137622      -0.51096943       0.33265760      -0.79455181
He       5.25336790       7.42311668       8.47724724      -1.46280683      -0.58856505       1.83836186      -1.27568458
27
Lattice="9.458852767944336 0.0 0.0 -4.708427429199219 8.432708740234375 0.0 0.0 0.0 100.0" Properties=species:S:1:pos:R:3:energies:R:1:forces:R:3 original_dataset_index=5 energy=-28.731088533398932 pbc="F F F"
X        0.74791241       0.33533147       9.98592186       0.31938815      -0.38215555       0.54145444       1.43746421
H        0.96857041       2.14405036      11.57516289      -1.97433828      -0.90747217       1.06812959      -0.25306209
He       0.62332231       2.30962300       8.63421822      -1.40447919       1.08385813       0.09903523      -3.29573995
X       -0.76474065       3.35159874      10.07071972       0.58834049      -1.60647053      -1.37514755       1.31864388
H       -0.74338067       5.26246595      11.58263779      -2.21796139       0.39527158      -0.97237461      -0.24332883
He      -0.94357163       5.14242554       8.39745426      -1.61101672       1.95181451      -1.61749095      -1.31836940
X       -2.27457595       5.92007446       9.94678116       0.43931938      -3.22858294       2.78979831       2.48424686
H       -2.29434681       8.07487392      11.49853420      -1.69891157      -1.67185685      -2.79058478       2.01808165
He      -2.46772861       7.80063629       8.45688629      -1.65940251       0.97633999       0.22602474      -0.21410480
X        3.83385921       0.35000309      10.06576538       0.37296633       2.25215326       1.95371427      -2.93295850
H        3.89961147       2.37261319      11.52928162      -2.08738713       0.28833087      -0.13835287      -0.29675088
He       3.81289005       2.19514155       8.43514633      -1.60751552       0.83182260       0.32043883       0.30169070
X        2.38088870       3.31683373       9.93483734       0.43727357      -0.14871263      -1.44269478       1.33209579
H        2.38247871       5.14624023      11.40544701      -2.16674929      -0.82482046      -0.54274057       1.97417108
He       2.40849924       5.10627651       8.42321873      -1.83074076      -0.06013912      -0.28140968      -2.21966338
X        0.76684433       5.88362885       9.85292530       0.70167238       0.04002889       2.74596649       1.62015692
H        0.86438400       8.09737396      11.69363213      -1.72724680      -0.45645625      -0.57353630      -1.74987452
He       0.65789539       7.89504814       8.37001896      -1.59446415       0.84866204      -0.04211054       1.41852814
X        7.13745356       0.52237552       9.95221138       0.34475210      -1.52379140      -1.86996261      -0.20862394
H        7.10448456       2.20130301      11.63295650      -2.08069306       0.06555192       1.52805762      -1.15154185
He       6.91497755       2.24622011       8.43909454      -1.52058703       1.42974140       1.27069831      -0.16324698
X        5.53835964       3.33085632       9.99668694       0.39233702      -1.05085841      -2.53271474       1.16634140
H        5.44293690       5.15291595      11.54131699      -2.18379768       0.67515075       0.17537665      -0.05146529
He       5.60340261       4.97765493       8.42017555      -1.61768619      -0.81475949       1.29946087      -0.06567270
X        3.89215612       6.04769707       9.97453499       0.37463412       1.54428293       1.16892297      -1.87293918
H        3.74520707       7.92267179      11.55897331      -2.05451031       1.60018757      -0.54076898      -0.40836415
He       4.07950926       7.95947886       8.30636787      -1.66428450      -1.30712029      -0.46719032       1.37428485
27
Lattice="8.86329174041748 0.0 0.0 -4.973175048828125 7.855757236480713 0.0 0.0 0.0 100.0" Properties=species:S:1:pos:R:3:energies:R:1:forces:R:3 original_dataset_index=6 energy=-25.96155856500326 pbc="F F F"
X        0.93555677       0.33658174       9.88046455       0.67351074      -5.88685485       1.18996812       4.41959001
H        0.43506089       2.05114198      11.74446106      -1.88049916       0.73798317       0.06222863      -1.49539969
He       0.58891875       2.24857998       8.64468861      -1.28370406       1.19108896      -0.28786515      -3.60054568
X       -0.98770040       3.04275918      10.00354576       0.12737289       0.74674600       0.85722725       2.95094268
H       -0.84295219       4.87877655      11.52858925      -1.31214047      -3.88741780      -1.90787439       2.86092818
He      -1.00688052       4.69434834       8.35238457      -1.43020814      -0.37716698       1.04188431       1.48641967
X       -2.56630397       5.70289278      10.04293728       0.16571375       0.90975497      -1.59457320      -0.43438718
H       -2.71569657       7.46188211      11.61322880      -1.94307358       0.48624992      -0.65180065      -0.16312675
He      -2.67552638       7.37120342       8.46500683      -1.42167791       2.07683730      -0.26444026      -1.99192984
X        3.69400716       0.55735570      10.07810879       0.13426181       1.69459483      -4.52594932       0.72060161
H        3.60740852       2.17067957      11.66530991      -1.96559180      -0.73569055       0.62587728       1.19246013
He       3.60157824       2.03537083       8.55013466      -1.10549452      -2.17810317       1.83849168      -1.73707184
X        2.06850696       3.04017735      10.21014023       0.33017861      -1.02458936      -1.67010641      -5.02260125
H        1.86522830       4.74228811      11.44191265      -1.34866456       0.32708431       1.81461626       6.27500391
He       2.01337552       4.83714247       8.44752407      -1.13120353      -1.59647787      -1.05833215       1.24176617
X        0.34500805       5.75113916      10.12797928      -0.03565313       2.57097257       0.32420240      -5.82519458
H        0.22010478       7.51917887      11.73936749      -1.86812054       0.02829246      -0.16398384      -1.25157455
He       0.40148851       7.37013912       8.50766087      -1.24399917      -1.93698301       0.84889376      -0.04806130
X        6.72643375       0.51513183      10.01674080      -0.15021259      -0.18827704      -1.35449450       0.13632461
H        6.49877834       2.00638866      11.71332169      -1.60973204      -0.78494974       2.19181334      -1.02859235
He       6.45324993       2.23431444       8.43041706      -1.40417231      -0.34035740      -0.52811695      -0.10929989
X        4.88182020       3.03170848       9.99855042       0.08966509       3.90531267       0.61048920       2.66084769
H        4.91532087       4.75376081      11.72234726      -1.95279793      -0.62641789       0.34677257      -1.52786163
He       4.84373760       4.61523724       8.38416767      -1.32815813      -0.29599070       1.98033152       0.99338341
X        3.32471108       5.72573805      10.06711769       0.12561452       2.52435137      -0.26324227      -1.44521043
H        3.12901497       7.46228552      11.66436863      -1.77173515       1.33000973      -0.01547124      -0.99793047
He       3.09800839       7.36752272       8.25553894      -1.42103723       1.32999903       0.55345354       1.74052013
27
Lattice="9.662663459777832 0.0 0.0 -4.85795259475708 8.334839820861816 0.0 0.0 0.0 100.0" Properties=species:S:1:pos:R:3:energies:R:1:forces:R:3 original_dataset_index=7 energy=-26.23327808951669 pbc="F F F"
X        0.81956494       0.69634950      10.05811119       0.90785621      -0.29481152      -6.54122071      -1.78314948
H        0.63767397       2.24827003      11.50368690      -1.73521756       1.21245049       3.41363997       2.56123451
He       0.89686620       2.24877334       8.41759777      -1.64661619      -0.47404030       2.37096680       0.00445739
X       -0.74714518       3.40418053      10.01025772       0.52347182      -1.17336681      -2.90636288      -1.78517163
H       -0.73758203       5.19822979      11.47351074      -2.02808301      -0.86389175      -0.95575185       2.71045149
He      -0.94248265       5.08044481       8.37311649      -1.74479850       0.65036168       0.52543160       0.75198902
X       -2.45616317       5.95259714      10.03644466       0.27684611      -0.27309541       0.64096044      -1.29080415
H       -2.36292505       7.75696421      11.68980312      -1.92388869      -0.36503294       1.20392409      -1.68368877
He      -2.41761780       7.72286081       8.45812225      -1.53474516      -0.28928940       1.71604819       0.67829449
X        3.99455476       0.58639902       9.99541473       0.59056631       0.41730360      -4.22779816       1.21014957
H        4.12334251       2.14092350      11.56096935      -1.84335764      -1.76998866       1.89810174       1.70723146
He       4.09172058       2.35452533       8.55687618      -1.66121113      -1.21735046       0.89171425      -1.53042936
X        2.35684633       3.44429231       9.99117184       0.67743002       0.59272509      -6.00387656       0.79286528
H        2.42505598       5.02598524      11.50309658      -1.98135079      -0.25177258       1.84160146       2.03369648
He       2.44040513       5.03526115       8.48841381      -1.49652808       0.12558222       2.37007541      -0.67801296
X        0.75138420       5.98787069      10.02082062       0.34098844       1.15346551       1.21286083      -2.07400238
H        0.76638550       7.73245478      11.71222305      -2.00835430      -0.65958410       0.56893911      -1.88028474
He       0.88221180       7.97584677       8.55396271      -1.34281449      -3.09839651      -1.63559778      -2.51102362
X        7.08039618       0.35899210       9.98744488       0.51610450       3.95331183       1.05388158       4.10893430
H        7.14972639       2.34458828      11.54248047      -1.96093757       0.78174171      -0.30114044       0.30421204
He       7.23577929       2.17226338       8.56152439      -1.45049387      -0.35005023       1.47402532      -0.50925302
X        5.51772499       3.19825172      10.11795998       0.66133717       2.16282887       1.79042723      -2.37823348
H        5.51361036       5.21716213      11.57222557      -1.94112904       1.75866382      -1.72747354       2.05620677
He       5.55947256       5.30135298       8.28777790      -1.41094468       0.48866513      -1.08426823       2.19167647
X        4.12703943       6.06636047      10.11962891       0.33179633      -3.02460808      -0.18604344      -5.17120007
H        3.87107658       7.76928520      11.60397434      -1.90335678       0.54492482       1.94422454      -0.17913464
He       3.88599777       7.80287743       8.32140827      -1.44584753       0.26325431       0.65271216       2.34298844
27
Lattice="9.491578102111816 0.0 0.0 -4.892338752746582 8.241594314575195 0.0 0.0 0.0 100.0" Properties=species:S:1:pos:R:3:energies:R:1:forces:R:3 original_dataset_index=8 energy=-28.387971375452278 pbc="F F F"
X        0.89837027       0.46181938       9.96041584       0.32010732      -2.50932287      -0.56679997       1.14237918
H        0.83078545       2.19841361      11.65182972      -2.08913694      -0.13769500       0.20961398      -1.54451100
He       0.77748173       2.25949097       8.33101082      -1.66848304       0.08456820       0.04426889       1.46288289
X       -0.81260723       3.10345268      10.05423069       0.36024214       0.24791081      -0.10268685      -0.24205720
H       -0.81223893       4.94013023      11.65534210      -2.07355482      -1.01060622       0.15647224      -1.53401780
He      -0.85472322       5.00622940       8.54980373      -1.60957819       0.46818004      -1.35997149      -3.24022755
X       -2.50166488       5.77478313       9.85046482       0.71056472       0.80286883       2.49485089       4.87542442
H       -2.61282349       7.79100704      11.60568714      -1.91089663       1.27657546      -1.01538411      -1.36608690
He      -2.50754213       7.69689798       8.48151207      -1.65782592       1.14684113       0.37316528      -1.40320314
X        4.01007891       0.49353549      10.03738689       0.43545231      -1.83081302      -1.84925648       2.19819744
H        3.99013042       2.14205074      11.59043407      -2.12562119      -0.04000963       1.73111921      -0.21317525
He       4.00498390       2.19477367       8.39212227      -1.76440267       0.24889885       0.30453373       0.39311089
X        2.42191100       3.06039500       9.96460724       0.31429319      -0.72034273       0.41826235       2.05687587
H        2.10932660       4.98295593      11.66899014      -1.96218747       1.83853319      -0.81129421      -1.33536420