27
Lattice="9.811128616333008 0.0 0.0 -4.528778076171875 8.422697067260742 0.0 0.0 0.0 100.0" Properties=species:S:1:pos:R:3:energies:R:1:forces:R:3 original_dataset_index=0 energy=-27.068911488361554 pbc="F F F"
X        0.83472985       0.29282984      10.07725906      -1.14697297      -0.32153185       2.86172329       1.98472810
H        0.87171096       2.34922671      11.64810085      -1.18143277       0.14510799      -0.94400697      -0.78138358
He       0.86545634       2.26451945       8.18193626      -0.45683601       0.04498332       0.02015254       3.17563039
X       -0.77480644       3.16883373      10.12756252      -1.11986538       1.82339669       1.96711683      -3.01640362
H       -0.62070400       5.19333458      11.81220150      -1.06282473      -0.15713180      -0.79569825      -1.89761070
He      -0.51218605       5.05976200       8.40774059      -0.70578674      -0.09482657       0.09041713       2.32604462
X       -2.18696141       6.01182938      10.01462173      -1.35480644       0.04072578      -0.89612458       1.11617151
H       -1.92230427       7.88123798      11.57541370      -1.21816830      -1.55913301      -0.53546249       1.07143449
He      -2.15987778       7.89304924       8.62920570      -0.72140895       0.29542411      -0.54556932      -3.13098355
X        4.02889585       0.32255852      10.04670334      -1.36776431       1.40789333       1.65749353      -1.02388306
H        4.12432289       2.25078487      11.55626202      -1.15544785      -0.77413776      -0.20329225       0.27373249
He       4.18692398       2.16217756       8.42734337      -0.70871388      -0.47662674       0.40078459       1.53430016
X        2.42883730       3.27767158      10.02679825      -1.31455587       1.30759688      -1.77229540      -0.62768030
H        2.79050684       5.17031860      11.55550194      -1.09805454      -0.08352333      -0.36602413       0.77908857
He       2.85467458       4.96361017       8.50356865      -0.44836428      -0.85018833       1.60395520       0.30001445
X        1.02212048       6.04715109      10.20094681      -1.17420807       0.54319302      -0.34473575      -2.54471409
H        1.05539882       8.00459957      11.58765030      -1.17002968       1.40413181      -0.10283097       0.04543794
He       1.29158020       7.83793068       8.53726864      -0.61991010      -1.63123437      -0.92854887      -1.74713978
X        7.37255144       0.37677875       9.85935688      -1.24542627       0.02926129       2.13450302       5.16248843
H        7.59042501       2.22612071      11.57322693      -1.14218239      -1.72439115      -1.18482784       0.34008382
He       7.52220058       2.40506291       8.32233429      -0.74282014      -0.92702556      -0.48070771       2.01774005
X        5.79919147       3.11027217      10.10192680      -1.07807610       0.98231973       1.58203357      -1.94421652
H        6.10283041       5.16892576      11.81806374      -0.98083680      -0.56221225      -0.39857286      -2.63304237
He       5.77532625       5.12753248       8.38165760      -0.57314121       1.61440225      -0.76092708       1.64567403
X        4.49017525       6.13691616      10.04595852      -1.40686962      -1.17502856      -0.56690736       0.29556003
H        4.36249113       7.85818481      11.65229511      -1.22136775       0.18422076       0.69935194      -1.26329284
He       4.50332785       8.12986565       8.47154522      -0.65304034       0.51433427      -2.19099968      -1.45777773
27
Lattice="9.261323928833008 0.0 0.0 -4.267256736755371 7.4276838302612305 0.0 0.0 0.0 100.0" Properties=species:S:1:pos:R:3:energies:R:1:forces:R:3 original_dataset_index=1 energy=-21.529015676101263 pbc="F F F"
X        0.60360032       0.37843621       9.81891251      -1.01200809       5.76008767      -0.70559979       5.58439300
H        0.91911787       2.02201366      11.54952526      -1.04046193       0.62494217       0.13121940      -1.53204747
He       1.03128731       1.97053099       8.50017738       0.26492671      -2.93427629       0.67429101      -7.50377629
X       -0.51454157       2.93493199       9.88790607      -1.36332977      -1.09076753      -2.29517865       3.20558958
H       -0.52815944       4.56262445      11.50951958      -1.04493955       0.96950483      -0.16840095       1.17553543
He      -0.38908303       4.44274330       8.21565628      -0.53943358       0.16587725       1.51778717       0.96688342
X       -1.94773889       5.20902634       9.90304756      -1.33132565      -1.04846943       2.39815925      -2.01165182
H       -1.78727162       7.04925013      11.81041813      -0.61265348      -0.16372332       0.13181232      -3.04072697
He      -1.95886540       6.96653175       8.38280678      -0.42126127       1.02725933       0.71863124       0.53004803
X        4.09290600       0.58632421       9.93478298      -1.01327788      -2.93737789      -6.40102619      -0.78182270
H        4.10207272       2.17888761      11.41976833      -0.79868101      -1.34385559       0.93028122       1.15962926
He       4.12575388       2.00502849       8.18958092      -0.65327728      -1.24090341       0.58556144      -0.92909889
X        2.47131586       2.79216981       9.73142815      -1.36350580       2.59951491       0.49855914       6.11817018
H        2.59809399       4.47816944      11.43465233      -0.92177329       1.73402385       0.02423834      -0.22607490
He       2.48775744       4.50360489       8.22261143      -0.62404808       0.89966285       0.82968248       0.48409606
X        1.10853696       5.39278936      10.06683636      -0.75814864      -1.27695321      -5.05210776      -4.10811951
H        1.17037940       6.91255856      11.45561218      -0.85335449       0.95325874       3.98897235       3.09303138
He       1.13867974       6.71359682       8.36565208      -0.37727535       0.61375027       4.22766120      -0.52990688
X        7.04564285       0.53554255       9.97141933      -0.94025344      -0.46881161      -7.34784300      -3.20878587
H        7.07759905       1.85945809      11.53759098      -0.51051152       0.57717199       4.32311701       1.07601200
He       7.05558968       2.15078330       8.46797562      -0.26197181       1.92209562      -0.10794594      -3.90001508
X        5.54956150       2.72385907       9.82791042      -1.38976672       0.99468330       3.80990679       2.12460956
H        5.77418184       4.48675108      11.30256271      -1.11332246      -0.52561750      -0.57364881       1.76279170
He       5.54778957       4.52775288       8.27774048      -0.26864626       3.60569928      -2.01241244      -2.07433389
X        4.33773470       5.34816837       9.70010567      -1.22227932      -5.50489259      -0.22054020       4.66597506
H        4.25942659       6.99261093      11.46685696      -1.00576122      -0.86279551      -0.96514450      -0.36363067
He       4.42070150       6.99663115       8.24166489      -0.35267451      -3.04908717       1.05996856      -1.73677201
27
Lattice="8.913963317871094 0.0 0.0 -4.676674842834473 8.108978271484375 0.0 0.0 0.0 100.0" Properties=species:S:1:pos:R:3:energies:R:1:forces:R:3 original_dataset_index=2 energy=-25.579877536154996 pbc="F F F"
X        0.77384341       0.45631468      10.05185986      -1.27019412       1.40872547      -0.65519450      -0.84740216
H        0.79559529       2.34602237      11.55108547      -0.94158714      -3.00381485      -2.65074545       2.84161072
He       0.89530420       2.10836172       8.55839252      -0.33946446      -4.41680133      -0.72207897      -4.16676189
X       -0.74814445       3.14199543      10.08836937      -1.17363526      -0.95504588       0.93123566      -3.57603742
H       -0.90358615       5.06544781      11.61182404      -1.10483834      -0.76680546      -1.81472838      -0.00297742
He      -0.93922776       5.04845333       8.35510254      -0.68246464       0.67268096      -1.76924941       1.00643235
X       -2.43624306       5.68495750       9.93769169      -1.42190789       1.24764117       3.29858479      -0.45229515
H       -2.44883776       7.56626654      11.52970982      -1.01984502      -0.35265107      -0.56950673       1.85121918
He      -2.32393265       7.60288572       8.54413986      -0.65618788      -0.01212496       0.36020071      -0.15121576
X        3.82342792       0.44048259      10.24693584      -0.77995672      -4.07856837       1.87071378      -9.34824318
H        3.47948265       2.26577258      11.61064434      -1.08706830       1.55776307       0.60249425       0.64767639
He       3.80905771       2.14922333       8.35842228      -0.52706070      -2.09347042      -0.38466487       1.31925582
X        1.98769784       3.01720095       9.97900772      -0.71445140       7.61678062       4.16991033       2.27656578
H        1.98765600       4.77270412      11.75634861      -0.89020989       0.56532324       1.04695953      -2.37299525
He       1.88532543       4.96774721       8.63409424      -0.37394054       0.82692387      -0.81214416      -3.78918978
X        0.48507380       5.89708853      10.07117176      -1.42995322       0.99238841       1.40668258      -0.10760997
H        0.34413245       7.72039413      11.57887268      -0.59336544       4.69918641      -2.06163566       4.84237713
He       0.56971812       7.69740772       8.24365044      -0.59108495      -0.18884262      -0.74686987       2.53527051
X        6.69056320       0.38858727      10.02807045      -1.31071672      -0.59857366      -0.04974786      -2.10862937
H        6.67024374       2.20652151      11.49012566      -1.17122046      -1.01672673       0.31935065       1.86030643
He       6.50618124       2.12583399       8.47489166      -0.60346202       1.67338856       1.18111854      -0.37721903
X        5.01607418       3.24278831       9.93038940      -1.45146683       1.03108567      -1.74550569       1.21899882
H        5.14188147       4.92713785      11.45623779      -1.14996239      -1.97598941      -0.29298985       1.45040435
He       4.98768044       4.98143816       8.26005173      -0.92131313      -0.49287859      -0.59882628       0.70580138
X        3.54682851       5.83047342       9.93722534      -1.28851652      -0.23423851      -0.79296524       1.12965228
H        3.56827736       7.52769995      11.39132023      -1.18646904      -0.87434849       0.57280139       4.60838275
He       3.63988662       7.68411255       8.46053314      -0.89953451      -1.23100732      -0.09319865      -0.99337811
27
Lattice="9.35168170928955 0.0 0.0 -5.103549480438232 8.335490226745605 0.0 0.0 0.0 100.0" Properties=species:S:1:pos:R:3:energies:R:1:forces:R:3 original_dataset_index=3 energy=-28.317961183378138 pbc="F F F"
X        0.67860574       0.50587827      10.02767754      -1.36802739      -2.07868195      -3.26392460       0.41258098
H        0.48191553       2.14093852      11.52878952      -1.21719645      -0.13701493       1.92015744       0.56720012
He       0.45482931       2.06853223       8.40332985      -0.77022681       0.34967725       1.75607023      -1.29376867
X       -0.97568244       3.24671388       9.87284946      -1.39831444      -0.82021648      -0.45928875       3.43130742
H       -1.21068931       5.06972980      11.67529774      -1.10419605      -0.70327766      -0.70024795      -1.48860074
He      -1.19102645       5.13815880       8.48909664      -0.61820020      -0.12912184      -0.88676592      -3.26383217
X       -2.71062779       6.05135727       9.92020988      -1.39872773      -1.02816680       0.93364308       3.64029334
H       -2.86302376       7.91716719      11.67059708      -1.16481638       0.35531741      -0.54912945      -1.84067781
He      -3.14044142       7.94637918       8.38085747      -0.53649373       2.64575413      -0.71026140       0.29803268
X        3.89108324       0.38910943      10.00223732      -1.27225302      -3.63506255       2.00450263       2.45395202
H        3.76146150       2.41960168      11.56919384      -1.08891229      -0.94049287      -1.06008566      -0.87317267
He       3.53607750       2.31529212       8.48666286      -0.65049490       1.44390882      -0.29276250      -0.74363369
X        1.92767429       3.11113620       9.93457508      -1.20757264       1.50655244       2.40888235       1.58387194
H        2.01595592       5.09241056      11.59316921      -1.16757534      -0.77546055      -1.32779399      -0.79237784
He       1.89274204       5.27216768       8.38491917      -0.68679741       0.06873721      -1.91440625       0.39896864
X        0.27169347       5.78582668      10.02324390      -1.22864575       2.32730385       4.17982759       1.74104654
H        0.27069378       7.85884285      11.68685341      -1.02216428       0.70605563      -0.68722978      -2.15062299
He       0.11628816       7.86493921       8.49842930      -0.49295109       1.66284231      -1.52583701      -1.51749747
X        6.93338919       0.46458498       9.87283325      -1.47394117      -1.40163364       0.51667259       2.80936278
H        6.93543053       2.33217001      11.59029961      -1.05583057      -0.96092732      -0.12950173      -1.86799919
He       6.79729033       2.37511754       8.40148926      -0.79877624      -0.71598510      -0.13225708      -0.45798804
X        5.21956539       3.36631536      10.00203991      -1.29006534       0.35177347      -3.11336038      -1.78010063
H        5.09961224       4.97066832      11.44069958      -1.15142135       0.51249205       2.35823997       2.53366310
He       5.08269119       5.14315176       8.45591927      -0.94023610      -0.08885962      -0.35605283      -1.23328843
X        3.51464820       5.95339060      10.00440693      -1.40454370      -0.67788577       1.71504201      -0.78113215
H        3.22616649       7.87172365      11.57604408      -1.13086614       1.26131332      -0.34902131      -1.13193427
He       3.31161642       7.82839251       8.31314564      -0.67871467       0.90105916      -0.33511207       1.34634774
27
Lattice="10.797208786010742 0.0 0.0 -4.724135398864746 7.946281433105469 0.0 0.0 0.0 100.0" Properties=species:S:1:pos:R:3:energies:R:1:forces:R:3 original_dataset_index=4 energy=-23.965703907531474 pbc="F F F"
X        0.89635944       0.49482745      10.00132751      -1.38870366       0.61221688      -1.22800804       0.32403314
H        1.01863348       2.21678567      11.75346947      -0.85764881      -0.35242989       0.32667487      -1.99992750
He       1.05528247       2.17410874       8.37143326      -0.55960104       0.11008985       0.90382736       0.56646668
X       -0.71697247       2.96667886       9.97777081      -1.24891733      -0.10016427      -0.53106309       2.69167072
H       -0.60586917       4.88332272      11.58542061      -0.94852559      -0.07790855       0.00949795      -1.69435355
He      -0.53394252       4.66651249       8.48186207      -0.41143293      -0.10051783       2.04592049       0.42745512
X       -2.44063997       5.89234257       9.90943336      -1.12069358       1.24078656      -3.37554271       1.20679769
H       -2.11487746       7.55680037      11.50913811      -1.16063870      -0.07321388       0.50275621       0.39216149
He      -1.92251325       7.57371092       8.41393089      -0.65289975      -0.82456673       0.97562199      -0.43262103
X        4.45161915       0.37257066      10.01326180      -1.04308063       1.26528426       0.81513856       0.17111046
H        4.72418594       2.34870720      11.60035419      -1.09886932      -0.93075678      -0.66728610      -1.35263449
He       4.55180550       2.32586026       8.38360596      -0.61867135       1.14163536      -1.54393586       0.30430887
X        2.98406887       3.16847873       9.84058857      -1.13501858      -0.99097619      -2.48177727       3.56573189
H        3.21960139       4.80168819      11.69343758      -0.94870655      -0.05518276       0.76672361      -2.30185678
He       3.15023470       4.70387745       8.25871849      -0.33558727      -0.24242682       2.79320198       0.30510396
X        1.36554575       5.65560055      10.09983921      -0.91499269       0.16761236      -0.79672414      -1.79937367
H        1.53905356       7.37906647      11.68450832      -0.89401972      -0.32742961       1.26361522      -1.54360045
He       1.75011742       7.54186678       8.24862576      -0.48221043      -0.65902259      -0.23230826       2.13790371
X        8.11897087       0.54141957       9.89197636      -1.05851741       0.13957389      -4.02555983       3.26311200
H        8.11973095       2.18748331      11.69419384      -0.99289952       0.08141179       0.62544666      -2.13705755
He       8.16635799       2.19737554       8.52999783      -0.36163139       0.17423115       2.41938552      -1.72469074
X        6.33095980       3.08814430       9.99717426      -1.32963307       1.55054186       0.02189124      -0.23714992
H        6.66630363       4.88119555      11.57766628      -1.03811835      -0.14131569       0.64597981      -1.57721509
He       6.84745693       4.88303328       8.24653149      -0.64521645      -0.93938519      -0.03921619       1.38415325
X        4.94033766       5.64073277       9.84764862      -1.21722532       0.45028141      -1.28415889       2.19624600
H        5.19438410       7.47565174      11.47969055      -1.03879424      -0.55784754       0.27407482      -0.85390000
He       5.25336790       7.42311668       8.47724724      -0.46345024      -0.56052130       1.81582379      -1.28187452
27
Lattice="9.458852767944336 0.0 0.0 -4.708427429199219 8.432708740234375 0.0 0.0 0.0 100.0" Properties=species:S:1:pos:R:3:energies:R:1:forces:R:3 original_dataset_index=5 energy=-28.766615662745533 pbc="F F F"
X        0.74791241       0.33533147       9.98592186      -1.48988398      -0.27545588       0.53456924       1.42913224
H        0.96857041       2.14405036      11.57516289      -1.05577529      -0.94991115       1.14373925      -0.26059366
He       0.62332231       2.30962300       8.63421822      -0.44383531       1.12171116       0.06903344      -3.32305243
X       -0.76474065       3.35159874      10.07071972      -1.18974315      -1.66655173      -1.35062867       1.40415498
H       -0.74338067       5.26246595      11.58263779      -1.39357224       0.41004264      -0.98809183      -0.22109036
He      -0.94357163       5.14242554       8.39745426      -0.75980524       1.97757590      -1.68578369      -1.30499113
X       -2.27457595       5.92007446       9.94678116      -1.31780314      -3.24619121       2.75616812       2.48439442
H       -2.29434681       8.07487392      11.49853420      -0.93446375      -1.63436503      -2.77537716       2.07914937
He      -2.46772861       7.80063629       8.45688629      -0.77213190       0.95754611       0.29202739      -0.25028946
X        3.83385921       0.35000309      10.06576538      -1.32150091       2.22142128       1.90801354      -2.95767557
H        3.89961147       2.37261319      11.52928162      -1.14237416       0.29166327      -0.11951984      -0.25809801
He       3.81289005       2.19514155       8.43514633      -0.71927788       0.86675191       0.32416337       0.27513425
X        2.38088870       3.31683373       9.93483734      -1.38640536      -0.17470970      -1.44065604       1.32050778
H        2.38247871       5.14624023      11.40544701      -1.32939181      -0.80589337      -0.54366438       1.97444362
He       2.40849924       5.10627651       8.42321873      -0.96391295      -0.08665253      -0.30244886      -2.18372236
X        0.76684433       5.88362885       9.85292530      -1.03416674       0.02868229       2.86066271       1.57587821
H        0.86438400       8.09737396      11.69363213      -0.84626697      -0.44831134      -0.63659697      -1.75572567
He       0.65789539       7.89504814       8.37001896      -0.66499943       0.82514906      -0.02928404       1.44493508
X        7.13745356       0.52237552       9.95221138      -1.44453541      -1.55376069      -1.86209057      -0.25459105
H        7.10448456       2.20130301      11.63295650      -1.18714294       0.06169927       1.54142605      -1.15325848
He       6.91497755       2.24622011       8.43909454      -0.63482241       1.48974938       1.26870561      -0.12512167
X        5.53835964       3.33085632       9.99668694      -1.41096712      -1.05521220      -2.51146192       1.13007612
H        5.44293690       5.15291595      11.54131699      -1.30239689       0.67148085       0.21414482      -0.06508818
He       5.60340261       4.97765493       8.42017555      -0.74551715      -0.82611252       1.26947212      -0.07127063
X        3.89215612       6.04769707       9.97453499      -1.33384150       1.52062989       1.09183325      -1.88817877
H        3.74520707       7.92267179      11.55897331      -1.16937004       1.55149123      -0.54656747      -0.42732277
He       4.07950926       7.95947886       8.30636787      -0.77271201      -1.27246664      -0.48178814       1.38226503
27
Lattice="8.86329174041748 0.0 0.0 -4.973175048828125 7.855757236480713 0.0 0.0 0.0 100.0" Properties=species:S:1:pos:R:3:energies:R:1:forces:R:3 original_dataset_index=6 energy=-25.928985119187818 pbc="F F F"
X        0.93555677       0.33658174       9.88046455      -1.03282845      -5.90385954       1.24638896       4.41722015
H        0.43506089       2.05114198      11.74446106      -0.97694465       0.74562323       0.00531931      -1.42654290
He       0.58891875       2.24857998       8.64468861      -0.39320194       1.25943926      -0.33647719      -3.77182738
X       -0.98770040       3.04275918      10.00354576      -1.55333857       0.60777207       0.89229398       2.90772330
H       -0.84295219       4.87877655      11.52858925      -0.75067667      -3.93799831      -1.89378154       2.83315458
He      -1.00688052       4.69434834       8.35238457      -0.75255175      -0.39122853       1.01456961       1.53969264
X       -2.56630397       5.70289278      10.04293728      -1.41700312       0.94638334      -1.59588307      -0.41019879
H       -2.71569657       7.46188211      11.61322880      -1.15625690       0.48309377      -0.66024362      -0.11955516
He      -2.67552638       7.37120342       8.46500683      -0.65629766       2.06631362      -0.25175330      -2.00223028
X        3.69400716       0.55735570      10.07810879      -1.32677945       1.79470774      -4.70560954       0.63342298
H        3.60740852       2.17067957      11.66530991      -1.17680645      -0.72883169       0.76450356       1.27334612
He       3.60157824       2.03537083       8.55013466      -0.41564735      -2.24111478       1.85449349      -1.67656468
X        2.06850696       3.04017735      10.21014023      -1.06063311      -0.92165243      -1.58912051      -5.00590285
H        1.86522830       4.74228811      11.44191265      -0.67833332       0.42473173       1.81669087       6.27150035
He       2.01337552       4.83714247       8.44752407      -0.64059824      -1.59790191      -1.05857895       1.05217260
X        0.34500805       5.75113916      10.12797928      -1.21028125       2.59431593       0.37606742      -5.78182695
H        0.22010478       7.51917887      11.73936749      -0.99015353       0.02803946      -0.16664408      -1.30820220
He       0.40148851       7.37013912       8.50766087      -0.57609195      -1.94851560       0.77735534      -0.02414788
X        6.72643375       0.51513183      10.01674080      -1.63655016      -0.18839427      -1.27006955       0.14726182
H        6.49877834       2.00638866      11.71332169      -0.78829996      -0.78194387       2.20425451      -1.05012444
He       6.45324993       2.23431444       8.43041706      -0.64832685      -0.30206787      -0.45029672      -0.03513362
X        4.88182020       3.03170848       9.99855042      -1.40303270       3.86823054       0.58410601       2.55317349
H        4.91532087       4.75376081      11.72234726      -1.11840342      -0.65035253       0.31487293      -1.55174811
He       4.84373760       4.61523724       8.38416767      -0.61011113      -0.33832125       1.94566550       1.01071008
X        3.32471108       5.72573805      10.06711769      -1.32563191       2.49110412      -0.25608878      -1.39733068
H        3.12901497       7.46228552      11.66436863      -0.95436425       1.31421715      -0.11600921      -0.82793830
He       3.09800839       7.36752272       8.25553894      -0.67984038       1.30820958       0.55397429       1.74989520
27
Lattice="9.662663459777832 0.0 0.0 -4.85795259475708 8.334839820861816 0.0 0.0 0.0 100.0" Properties=species:S:1:pos:R:3:energies:R:1:forces:R:3 original_dataset_index=7 energy=-26.3085208419363 pbc="F F F"
X        0.81956494       0.69634950      10.05811119      -0.67323407      -0.27807635      -6.48886651      -1.84042957
H        0.63767397       2.24827003      11.50368690      -1.01311927       1.19415018       3.33423293       2.70634359
He       0.89686620       2.24877334       8.41759777      -0.81442256      -0.48570958       2.29412733      -0.01540507
X       -0.74714518       3.40418053      10.01025772      -1.18210010      -1.11336875      -2.87990857      -1.76460828
H       -0.73758203       5.19822979      11.47351074      -1.24296120      -0.83053998      -0.93767977       2.73530507
He      -0.94248265       5.08044481       8.37311649      -0.91353138       0.63642069       0.49344818       0.73822530
X       -2.45616317       5.95259714      10.03644466      -1.47921699      -0.20824358       0.76571350      -1.35285379
H       -2.36292505       7.75696421      11.68980312      -1.02201640      -0.40557332       1.21004695      -1.67544360
He      -2.41761780       7.72286081       8.45812225      -0.61427116      -0.31388718       1.66544693       0.68717291
X        3.99455476       0.58639902       9.99541473      -1.16945992       0.47708151      -4.14382877       1.16261689
H        4.12334251       2.14092350      11.56096935      -1.10863721      -1.87504718       1.88447160       1.68740037
He       4.09172058       2.35452533       8.55687618      -0.78343877      -1.13526896       0.90561569      -1.48747804
X        2.35684633       3.44429231       9.99117184      -0.94409648       0.66951674      -5.94297850       0.78506057
H        2.42505598       5.02598524      11.50309658      -1.16285915      -0.24691216       1.82306904       2.04761758
He       2.44040513       5.03526115       8.48841381      -0.69806867       0.11638890       2.37631478      -0.58024604
X        0.75138420       5.98787069      10.02082062      -1.34792462       1.17075778       1.16557796      -2.11031393
H        0.76638550       7.73245478      11.71222305      -1.08141224      -0.69682152       0.57441651      -1.84289630
He       0.88221180       7.97584677       8.55396271      -0.38236906      -3.01009671      -1.57158940      -2.53457239
X        7.08039618       0.35899210       9.98744488      -1.41236499       3.79970247       1.00626402       4.05292242
H        7.14972639       2.34458828      11.54248047      -1.08448920       0.83804456      -0.30054387       0.24835888
He       7.23577929       2.17226338       8.56152439      -0.54048784      -0.42857902       1.37769241      -0.48115208
X        5.51772499       3.19825172      10.11795998      -1.02043639       2.08497934       1.83029301      -2.40366008
H        5.51361036       5.21716213      11.57222557      -1.15796366       1.72443474      -1.72000477       2.03083757
He       5.55947256       5.30135298       8.28777790      -0.61393829       0.48630484      -1.17970726       2.20783706
X        4.12703943       6.06636047      10.11962891      -1.21100915      -3.09474851      -0.16943276      -5.19351698
H        3.87107658       7.76928520      11.60397434      -1.04811102       0.61904381       1.96694637      -0.20022456
He       3.88599777       7.80287743       8.32140827      -0.58658106       0.30604745       0.66086215       2.39310130
27
Lattice="9.491578102111816 0.0 0.0 -4.892338752746582 8.241594314575195 0.0 0.0 0.0 100.0" Properties=species:S:1:pos:R:3:energies:R:1:forces:R:3 original_dataset_index=8 energy=-28.41550724816067 pbc="F F F"
X        0.89837027       0.46181938       9.96041584      -1.42790460      -2.50814164      -0.57473351       1.16603123
H        0.83078545       2.19841361      11.65182972      -1.19996227      -0.14124492       0.22911432      -1.59634635
He       0.77748173       2.25949097       8.33101082      -0.81765611       0.06865169       0.04450315       1.50384023
X       -0.81260723       3.10345268      10.05423069      -1.41099257       0.24557993      -0.09466929      -0.17213391
H       -0.81223893       4.94013023      11.65534210      -1.16087385      -0.96772238       0.08110292      -1.48556364
He      -0.85472322       5.00622940       8.54980373      -0.61673047       0.49946057      -1.26774259      -3.28466741
X       -2.50166488       5.77478313       9.85046482      -1.12248018       0.84746440       2.57932619       4.79338273
H       -2.61282349       7.79100704      11.60568714      -1.05854823       1.24299152      -1.01187331      -1.34571400
He      -2.50754213       7.69689798       8.48151207      -0.69022995       1.17561033       0.34187296      -1.40187574
X        4.01007891       0.49353549      10.03738689      -1.39745848      -1.78275373      -1.88960382       2.24637312
H        3.99013042       2.14205074      11.59043407      -1.26104334      -0.03163508       1.70984378      -0.26279886
He       4.00498390       2.19477367       8.39212227      -0.92048829       0.26862723       0.26011824       0.43968124
X        2.42191100       3.06039500       9.96460724      -1.48003022      -0.74352992       0.38797235       2.02876962
H        2.10932660       4.98295593      11.66899014      -1.09599825       1.81379142      -0.79736252      -1.28175429