27
Lattice="9.811128616333008 0.0 0.0 -4.528778076171875 8.422697067260742 0.0 0.0 0.0 100.0" Properties=species:S:1:pos:R:3:energies:R:1:forces:R:3 original_dataset_index=0 energy=-27.074619169247224 pbc="F F F"
X        0.83472985       0.29282984      10.07725906      -2.35802337      -0.41270428       2.79692687       1.89164907
H        0.87171096       2.34922671      11.64810085      -0.87071821       0.18585554      -0.94956789      -0.72957911
He       0.86545634       2.26451945       8.18193626       0.32876895       0.06649086       0.07225897       3.19107912
X       -0.77480644       3.16883373      10.12756252      -2.29460612       1.81123099       1.94077712      -2.99936250
H       -0.62070400       5.19333458      11.81220150      -0.78062817      -0.16160654      -0.78932207      -1.87270444
He      -0.51218605       5.05976200       8.40774059       0.08391594      -0.09739110       0.10899576       2.33247373
X       -2.18696141       6.01182938      10.01462173      -2.49099654       0.07739739      -0.90447661       1.17413441
H       -1.92230427       7.88123798      11.57541370      -0.84914178      -1.55582288      -0.51316380       1.14709549
He      -2.15987778       7.89304924       8.62920570       0.26058947       0.36179664      -0.53341846      -3.12349189
X        4.02889585       0.32255852      10.04670334      -2.60778578       1.34316111       1.64665568      -1.07039340
H        4.12432289       2.25078487      11.55626202      -0.92575575      -0.76261575      -0.16040426       0.21845492
He       4.18692398       2.16217756       8.42734337       0.09276626      -0.44443098       0.42891116       1.51053159
X        2.42883730       3.27767158      10.02679825      -2.29897474       1.34261994      -1.84080656      -0.63392735
H        2.79050684       5.17031860      11.55550194      -0.90379634      -0.07280529      -0.33107161       0.70993034
He       2.85467458       4.96361017       8.50356865       0.35158391      -0.86057195       1.60010995       0.27323592
X        1.02212048       6.04715109      10.20094681      -2.26338502       0.48362681      -0.34755058      -2.58389400
H        1.05539882       8.00459957      11.58765030      -0.84473788       1.40642803      -0.11987006       0.08760209
He       1.29158020       7.83793068       8.53726864       0.20224819      -1.69850329      -0.96491779      -1.61741723
X        7.37255144       0.37677875       9.85935688      -2.37930049       0.12173325       2.12859422       5.15747934
H        7.59042501       2.22612071      11.57322693      -0.79607885      -1.78145011      -1.13468618       0.29631317
He       7.52220058       2.40506291       8.32233429       0.04919584      -0.89404152      -0.48311627       2.00211950
X        5.79919147       3.11027217      10.10192680      -2.09189210       0.90092629       1.57251351      -1.97090846
H        6.10283041       5.16892576      11.81806374      -0.71323669      -0.57122695      -0.39857065      -2.60616302
He       5.77532625       5.12753248       8.38165760       0.17800041       1.57663896      -0.75273970       1.60653393
X        4.49017525       6.13691616      10.04595852      -2.48831534      -1.06454015      -0.61721358       0.29037014
H        4.36249113       7.85818481      11.65229511      -0.91086606       0.17942219       0.71376005      -1.27738231
He       4.50332785       8.12986565       8.47154522       0.24655111       0.52038337      -2.16860740      -1.40377929
27
Lattice="9.261323928833008 0.0 0.0 -4.267256736755371 7.4276838302612305 0.0 0.0 0.0 100.0" Properties=species:S:1:pos:R:3:energies:R:1:forces:R:3 original_dataset_index=1 energy=-21.53899777865945 pbc="F F F"
X        0.60360032       0.37843621       9.81891251      -2.75679985       5.61672883      -0.73504585       5.53047662
H        0.91911787       2.02201366      11.54952526      -0.50617051       0.68022809       0.14017660      -1.40808274
He       1.03128731       1.97053099       8.50017738       1.63413414      -2.79923571       0.71440236      -7.67647586
X       -0.51454157       2.93493199       9.88790607      -3.23916987      -0.97348142      -2.22691070       3.22978529
H       -0.52815944       4.56262445      11.50951958      -0.46669558       0.96196305      -0.06060453       1.20872582
He      -0.38908303       4.44274330       8.21565628       0.63525769       0.19491350       1.40242447       0.95158753
X       -1.94773889       5.20902634       9.90304756      -3.09990078      -1.10753643       2.57855676      -2.03689356
H       -1.78727162       7.04925013      11.81041813      -0.18402451      -0.12209538       0.05367861      -2.94412483
He      -1.95886540       6.96653175       8.38280678       0.78967416       0.90620365       0.64625773       0.55028281
X        4.09290600       0.58632421       9.93478298      -2.68622084      -3.02796581      -6.40783606      -0.68356135
H        4.10207272       2.17888761      11.41976833      -0.27131416      -1.28858789       0.93630782       1.15140108
He       4.12575388       2.00502849       8.18958092       0.42450398      -1.05390127       0.56660712      -0.73783499
X        2.47131586       2.79216981       9.73142815      -3.20423379       2.34332507       0.67724914       6.12084897
H        2.59809399       4.47816944      11.43465233      -0.32368357       1.71233975       0.06896343      -0.17171198
He       2.48775744       4.50360489       8.22261143       0.64518192       1.05324387       0.63203005       0.42613926
X        1.10853696       5.39278936      10.06683636      -2.89518423      -1.29454580      -5.14031886      -4.09052090
H        1.17037940       6.91255856      11.45561218      -0.10276177       0.92176483       3.99758947       2.94711071
He       1.13867974       6.71359682       8.36565208       1.04667923       0.65031513       4.31779303      -0.36734644
X        7.04564285       0.53554255       9.97141933      -2.91538417      -0.42364443      -7.43403887      -3.34536288
H        7.07759905       1.85945809      11.53759098       0.12195438       0.49252323       4.35450811       0.85377046
He       7.05558968       2.15078330       8.46797562       1.08509519       1.95452943      -0.15054097      -3.90489906
X        5.54956150       2.72385907       9.82791042      -3.23770134       1.02643842       3.91794552       2.16654964
H        5.77418184       4.48675108      11.30256271      -0.37734565      -0.61385535      -0.54857137       1.63970008
He       5.54778957       4.52775288       8.27774048       1.05995867       3.57745749      -2.00796055      -2.09167308
X        4.33773470       5.34816837       9.70010567      -3.04396407      -5.42565754      -0.31728203       4.84469568
H        4.25942659       6.99261093      11.46685696      -0.44959558      -0.75688754      -1.08830512      -0.36850938
He       4.42070150       6.99663115       8.24166489       0.77871312      -3.20457971       1.11292474      -1.79407554
27
Lattice="8.913963317871094 0.0 0.0 -4.676674842834473 8.108978271484375 0.0 0.0 0.0 100.0" Properties=species:S:1:pos:R:3:energies:R:1:forces:R:3 original_dataset_index=2 energy=-25.60196211746838 pbc="F F F"
X        0.77384341       0.45631468      10.05185986      -3.17381224       1.37429177      -0.62063848      -0.82183496
H        0.79559529       2.34602237      11.55108547      -0.34219024      -3.19958766      -2.68542177       2.92000235
He       0.89530420       2.10836172       8.55839252       0.88916053      -4.46170623      -0.74430249      -4.11651748
X       -0.74814445       3.14199543      10.08836937      -2.82790356      -0.80573299       0.95114611      -3.61294934
H       -0.90358615       5.06544781      11.61182404      -0.53129341      -0.75462789      -1.83219161      -0.05493623
He      -0.93922776       5.04845333       8.35510254       0.43392302       0.60535575      -1.83853697       0.94481465
X       -2.43624306       5.68495750       9.93769169      -3.22053911       1.29083220       3.27810850      -0.43083174
H       -2.44883776       7.56626654      11.52970982      -0.44710549      -0.25608668      -0.67076465       1.85692973
He      -2.32393265       7.60288572       8.54413986       0.72563712       0.01321836       0.40721448      -0.13678036
X        3.82342792       0.44048259      10.24693584      -2.63256001      -3.87259435       1.76632915      -9.05287884
H        3.47948265       2.26577258      11.61064434      -0.52337970       1.49194560       0.52929451       0.58198439
He       3.80905771       2.14922333       8.35842228       0.65514855      -2.12101229      -0.31599389       1.16904977
X        1.98769784       3.01720095       9.97900772      -2.50253724       7.59176488       4.22250017       2.22148087
H        1.98765600       4.77270412      11.75634861      -0.48737391       0.55169014       1.06149225      -2.28092588
He       1.88532543       4.96774721       8.63409424       0.87829761       0.78472834      -0.76134019      -3.62987156
X        0.48507380       5.89708853      10.07117176      -3.16965068       0.84267293       1.51158726      -0.12239635
H        0.34413245       7.72039413      11.57887268      -0.06629495       4.49774554      -1.97749195       4.92397330
He       0.56971812       7.69740772       8.24365044       0.53620544      -0.11942399      -0.82295196       2.34520873
X        6.69056320       0.38858727      10.02807045      -3.02542551      -0.57817808      -0.02108856      -2.18233140
H        6.67024374       2.20652151      11.49012566      -0.62409006      -0.98491841       0.26833935       1.84620557
He       6.50618124       2.12583399       8.47489166       0.59204076       1.74488888       1.12904112      -0.42559300
X        5.01607418       3.24278831       9.93038940      -3.13770248       1.02700953      -1.61604782       1.09641476
H        5.14188147       4.92713785      11.45623779      -0.54823418      -1.96406445      -0.27669010       1.46590562
He       4.98768044       4.98143816       8.26005173       0.12827094      -0.43866610      -0.60483942       0.74154424
X        3.54682851       5.83047342       9.93722534      -2.99961473      -0.22400306      -0.74276716       1.09837804
H        3.56827736       7.52769995      11.39132023      -0.56469901      -0.84357985       0.49954889       4.65379446
He       3.63988662       7.68411255       8.46053314       0.38376043      -1.19196009      -0.09353351      -0.99784134
27
Lattice="9.35168170928955 0.0 0.0 -5.103549480438232 8.335490226745605 0.0 0.0 0.0 100.0" Properties=species:S:1:pos:R:3:energies:R:1:forces:R:3 original_dataset_index=3 energy=-28.34348124313941 pbc="F F F"
X        0.67860574       0.50587827      10.02767754      -2.89162699      -2.04493804      -3.16504783       0.35940065
H        0.48191553       2.14093852      11.52878952      -0.74735134      -0.09072751       1.88598741       0.46081011
He       0.45482931       2.06853223       8.40332985       0.29467267       0.33105547       1.70229878      -1.25262708
X       -0.97568244       3.24671388       9.87284946      -2.85203359      -0.81725388      -0.43279820       3.50365774
H       -1.21068931       5.06972980      11.67529774      -0.73640739      -0.68923452      -0.72564751      -1.52049305
He      -1.19102645       5.13815880       8.48909664       0.40117375      -0.18033609      -0.85457806      -3.23543501
X       -2.71062779       6.05135727       9.92020988      -2.79179393      -1.07400183       0.94235995       3.54971991
H       -2.86302376       7.91716719      11.67059708      -0.81310114       0.38153726      -0.54428490      -1.85626754
He      -3.14044142       7.94637918       8.38085747       0.46669178       2.59196074      -0.72226305       0.34601805
X        3.89108324       0.38910943      10.00223732      -2.50386073      -3.69568030       2.07148975       2.47163162
H        3.76146150       2.41960168      11.56919384      -0.75217563      -0.94436638      -1.03674457      -0.86613040
He       3.53607750       2.31529212       8.48666286       0.27202048       1.44856526      -0.29594478      -0.69306184
X        1.92767429       3.11113620       9.93457508      -2.52522918       1.47028770       2.31664995       1.59953985
H        2.01595592       5.09241056      11.59316921      -0.79061308      -0.77886635      -1.33957808      -0.85987819
He       1.89274204       5.27216768       8.38491917       0.27220250       0.03268196      -1.88347000       0.38347080
X        0.27169347       5.78582668      10.02324390      -2.55474387       2.36317882       4.07789107       1.82110100
H        0.27069378       7.85884285      11.68685341      -0.70594108       0.72391185      -0.65440649      -2.14474104
He       0.11628816       7.86493921       8.49842930       0.41755442       1.72340897      -1.51875557      -1.49849802
X        6.93338919       0.46458498       9.87283325      -2.73822934      -1.37017235       0.51972502       2.81098574
H        6.93543053       2.33217001      11.59029961      -0.66899579      -0.91621455      -0.10763648      -1.87209736
He       6.79729033       2.37511754       8.40148926       0.13810120      -0.75657582      -0.14197061      -0.50240542
X        5.21956539       3.36631536      10.00203991      -2.70848620       0.33991850      -3.15403798      -1.79621243
H        5.09961224       4.97066832      11.44069958      -0.68050413       0.50660858       2.35169221       2.54473799
He       5.08269119       5.14315176       8.45591927       0.13232418      -0.10117502      -0.37103179      -1.19205255
X        3.51464820       5.95339060      10.00440693      -2.78566846      -0.62590464       1.71315578      -0.78273260
H        3.22616649       7.87172365      11.57604408      -0.76183115       1.26182950      -0.31287996      -1.09231056
He       3.31161642       7.82839251       8.31314564       0.27037080       0.91050226      -0.32017394       1.31387109
27
Lattice="10.797208786010742 0.0 0.0 -4.724135398864746 7.946281433105469 0.0 0.0 0.0 100.0" Properties=species:S:1:pos:R:3:energies:R:1:forces:R:3 original_dataset_index=4 energy=-24.01369123662362 pbc="F F F"
X        0.89635944       0.49482745      10.00132751      -2.28136115       0.62673564      -1.22517794       0.29434259
H        1.01863348       2.21678567      11.75346947      -0.65888047      -0.42629456       0.29802666      -1.95140178
He       1.05528247       2.17410874       8.37143326       0.10398989       0.16724710       0.89340223       0.61996988
X       -0.71697247       2.96667886       9.97777081      -2.05939493      -0.20397702      -0.47411113       2.66412264
H       -0.60586917       4.88332272      11.58542061      -0.81182308      -0.26590417       0.03782926      -1.65925318
He      -0.53394252       4.66651249       8.48186207       0.24727229      -0.21306212       2.00712892       0.37655395
X       -2.44063997       5.89234257       9.90943336      -2.04496547       1.38983011      -3.37431665       1.22673805
H       -2.11487746       7.55680037      11.50913811      -0.97631499      -0.12562692       0.56745335       0.35771694
He      -1.92251325       7.57371092       8.41393089       0.06122815      -0.89352136       0.86827842      -0.33257995
X        4.45161915       0.37257066      10.01326180      -1.91111696       1.27845358       0.86696335       0.13177029
H        4.72418594       2.34870720      11.60035419      -0.83365466      -0.95564266      -0.70697850      -1.28604255
He       4.55180550       2.32586026       8.38360596       0.14575886       1.17503775      -1.37566771       0.33593129
X        2.98406887       3.16847873       9.84058857      -2.10361710      -0.91688982      -2.40003253       3.32877276
H        3.21960139       4.80168819      11.69343758      -0.73036981       0.00182732       0.75618970      -2.25828628
He       3.15023470       4.70387745       8.25871849       0.27976707      -0.20935177       2.64477283       0.29944516
X        1.36554575       5.65560055      10.09983921      -1.70568815       0.24899799      -0.76756479      -1.88733593
H        1.53905356       7.37906647      11.68450832      -0.70825324      -0.24601202       1.28214567      -1.39242841
He       1.75011742       7.54186678       8.24862576       0.14222011      -0.63206263      -0.26340608       2.14668960
X        8.11897087       0.54141957       9.89197636      -1.89579441       0.21379479      -4.04916423       3.32739430
H        8.11973095       2.18748331      11.69419384      -0.80405953       0.05784666       0.59842796      -2.10859442
He       8.16635799       2.19737554       8.52999783       0.33203824       0.17343179       2.29987240      -1.85554473
X        6.33095980       3.08814430       9.99717426      -2.27433259       1.60266473       0.00917835      -0.30984685
H        6.66630363       4.88119555      11.57766628      -0.79349335      -0.22411214       0.65678566      -1.56908823
He       6.84745693       4.88303328       8.24653149       0.03407274      -0.96355015       0.00007691       1.38703708
X        4.94033766       5.64073277       9.84764862      -2.18649938       0.46692498      -1.21086207       2.16140336
H        5.19438410       7.47565174      11.47969055      -0.83043921      -0.57611919       0.30523626      -0.84019515
He       5.25336790       7.42311668       8.47724724       0.25001991      -0.55066636       1.75551391      -1.20729024
27
Lattice="9.458852767944336 0.0 0.0 -4.708427429199219 8.432708740234375 0.0 0.0 0.0 100.0" Properties=species:S:1:pos:R:3:energies:R:1:forces:R:3 original_dataset_index=5 energy=-28.762686219112272 pbc="F F F"
X        0.74791241       0.33533147       9.98592186      -2.77378497      -0.35841787       0.52779686       1.39977346
H        0.96857041       2.14405036      11.57516289      -0.76978930      -0.95316997       1.13901114      -0.18511647
He       0.62332231       2.30962300       8.63421822       0.54181955       1.11929250       0.00798782      -3.34163657
X       -0.76474065       3.35159874      10.07071972      -2.45423403      -1.64104936      -1.24521661       1.34955314
H       -0.74338067       5.26246595      11.58263779      -0.99624994       0.47177338      -1.04106249      -0.29606328
He      -0.94357163       5.14242554       8.39745426       0.24630455       1.99399615      -1.73625492      -1.31465227
X       -2.27457595       5.92007446       9.94678116      -2.67985950      -3.23393678       2.76831652       2.45114109
H       -2.29434681       8.07487392      11.49853420      -0.54199078      -1.63932697      -2.77494668       2.06009296
He      -2.46772861       7.80063629       8.45688629       0.22443569       0.92067726       0.30441794      -0.18693333
X        3.83385921       0.35000309      10.06576538      -2.59654750       2.24496733       1.91649400      -2.90560836
H        3.89961147       2.37261319      11.52928162      -0.81467989       0.28335300      -0.12821213      -0.29601337
He       3.81289005       2.19514155       8.43514633       0.20314410       0.85676319       0.33078684       0.28814259
X        2.38088870       3.31683373       9.93483734      -2.72582103      -0.18133088      -1.37190279       1.41455201
H        2.38247871       5.14624023      11.40544701      -0.84805471      -0.78410962      -0.51749386       1.94695379
He       2.40849924       5.10627651       8.42321873       0.02483856      -0.02825039      -0.31034798      -2.27859792
X        0.76684433       5.88362885       9.85292530      -2.39347081       0.00368531       2.71162164       1.66972613
H        0.86438400       8.09737396      11.69363213      -0.54783258      -0.41461253      -0.57655098      -1.73364140
He       0.65789539       7.89504814       8.37001896       0.15322606       0.81964147      -0.02306449       1.43677133
X        7.13745356       0.52237552       9.95221138      -2.64421103      -1.56871940      -1.85134694      -0.26346500
H        7.10448456       2.20130301      11.63295650      -0.85970375       0.09958861       1.56538306      -1.13966301
He       6.91497755       2.24622011       8.43909454       0.31164646       1.47315004       1.23165551      -0.10241973
X        5.53835964       3.33085632       9.99668694      -2.71859385      -1.06681792      -2.49868915       1.10793432
H        5.44293690       5.15291595      11.54131699      -0.93519676       0.68807501       0.17314879      -0.03081728
He       5.60340261       4.97765493       8.42017555       0.25046686      -0.89470735       1.32799512      -0.08711693
X        3.89215612       6.04769707       9.97453499      -2.68150729       1.49786301       1.10601959      -1.89610537
H        3.74520707       7.92267179      11.55897331      -0.80013278       1.56657107      -0.51003905      -0.40306623
He       4.07950926       7.95947886       8.30636787       0.06309243      -1.27494779      -0.52550745       1.33627634
27
Lattice="8.86329174041748 0.0 0.0 -4.973175048828125 7.855757236480713 0.0 0.0 0.0 100.0" Properties=species:S:1:pos:R:3:energies:R:1:forces:R:3 original_dataset_index=6 energy=-25.97850660278771 pbc="F F F"
X        0.93555677       0.33658174       9.88046455      -2.77012483      -5.83412101       1.07063316       4.37714269
H        0.43506089       2.05114198      11.74446106      -0.49378459       0.73068340       0.06641620      -1.51119818
He       0.58891875       2.24857998       8.64468861       0.91572834       1.22261839      -0.28647967      -3.59844868
X       -0.98770040       3.04275918      10.00354576      -3.32099888       0.67293977       0.97311460       2.87247039
H       -0.84295219       4.87877655      11.52858925      -0.10034223      -3.82585339      -1.91050690       2.88122523
He      -1.00688052       4.69434834       8.35238457       0.43116269      -0.41213172       0.98203204       1.56662529
X       -2.56630397       5.70289278      10.04293728      -3.16300266       0.88108952      -1.57752657      -0.48209208
H       -2.71569657       7.46188211      11.61322880      -0.54758854       0.53600795      -0.67368592      -0.11986890
He      -2.67552638       7.37120342       8.46500683       0.53085612       2.04907959      -0.29932465      -2.02440235
X        3.69400716       0.55735570      10.07810879      -3.23438991       1.70547184      -4.54411213       0.65091807
H        3.60740852       2.17067957      11.66530991      -0.57003666      -0.62984033       0.79393322       1.19464682
He       3.60157824       2.03537083       8.55013466       0.90362345      -2.18462138       1.78256705      -1.73832312
X        2.06850696       3.04017735      10.21014023      -2.99457437      -1.05378541      -1.67113428      -5.03313433
H        1.86522830       4.74228811      11.44191265       0.06305834       0.46882691       1.75956288       6.34522629
He       2.01337552       4.83714247       8.44752407       0.74021452      -1.52521805      -1.02956016       1.11120361
X        0.34500805       5.75113916      10.12797928      -3.12598919       2.50677778       0.43660995      -5.74094955
H        0.22010478       7.51917887      11.73936749      -0.45437296       0.05465082      -0.19405459      -1.31638661
He       0.40148851       7.37013912       8.50766087       0.79178148      -1.96675999       0.87860645      -0.04540099
X        6.72643375       0.51513183      10.01674080      -3.46724608      -0.15722485      -1.31954193       0.12589682
H        6.49877834       2.00638866      11.71332169      -0.27033642      -0.85743714       2.23720929      -1.13500733
He       6.45324993       2.23431444       8.43041706       0.57726033      -0.37432848      -0.48618948      -0.03306010
X        4.88182020       3.03170848       9.99855042      -3.26671072       3.79183888       0.55630274       2.71164931
H        4.91532087       4.75376081      11.72234726      -0.62138257      -0.63967651       0.32417256      -1.55621146
He       4.84373760       4.61523724       8.38416767       0.61466489      -0.33368453       1.96860880       1.03635637
X        3.32471108       5.72573805      10.06711769      -3.19348308       2.43805337      -0.30960045      -1.38252368
H        3.12901497       7.46228552      11.66436863      -0.36371537       1.36597331      -0.09880663      -0.97382648
He       3.09800839       7.36752272       8.25553894       0.41122227       1.37067176       0.57075522       1.81747483
27
Lattice="9.662663459777832 0.0 0.0 -4.85795259475708 8.334839820861816 0.0 0.0 0.0 100.0" Properties=species:S:1:pos:R:3:energies:R:1:forces:R:3 original_dataset_index=7 energy=-26.271894110064853 pbc="F F F"
X        0.81956494       0.69634950      10.05811119      -1.86730967      -0.28938475      -6.67105995      -1.72579380
H        0.63767397       2.24827003      11.50368690      -0.61566087       1.19019644       3.43916658       2.64112753
He       0.89686620       2.24877334       8.41759777       0.10175841      -0.47584748       2.39894138      -0.01333750
X       -0.74714518       3.40418053      10.01025772      -2.41794024      -1.14547651      -2.90547351      -1.77496638
H       -0.73758203       5.19822979      11.47351074      -0.75184682      -0.87336821      -0.96745804       2.72248481
He      -0.94248265       5.08044481       8.37311649      -0.01119043       0.66597934       0.54717863       0.72361057
X       -2.45616317       5.95259714      10.03644466      -2.75328451      -0.16487085       0.74429583      -1.36264452
H       -2.36292505       7.75696421      11.68980312      -0.74457711      -0.41233406       1.26429961      -1.74124270
He      -2.41761780       7.72286081       8.45812225       0.23812270      -0.30717851       1.66005450       0.69326324
X        3.99455476       0.58639902       9.99541473      -2.48610613       0.41338800      -4.17951168       1.24692088
H        4.12334251       2.14092350      11.56096935      -0.67176857      -1.73344479       1.86795454       1.68948466
He       4.09172058       2.35452533       8.55687618       0.23207623      -1.15690664       0.84201886      -1.44583362
X        2.35684633       3.44429231       9.99117184      -2.34146558       0.60652847      -6.04950901       0.75660193
H        2.42505598       5.02598524      11.50309658      -0.73278577      -0.22758617       1.86158591       2.06735814
He       2.44040513       5.03526115       8.48841381       0.32932987       0.09247443       2.41337638      -0.67571984
X        0.75138420       5.98787069      10.02082062      -2.68969505       1.16792604       1.22214842      -2.12113909
H        0.76638550       7.73245478      11.71222305      -0.75548451      -0.71006608       0.60175436      -1.89423064
He       0.88221180       7.97584677       8.55396271       0.54240802      -3.06605860      -1.66202420      -2.55275894
X        7.08039618       0.35899210       9.98744488      -2.59494424       3.91926235       1.11017675       4.14716647
H        7.14972639       2.34458828      11.54248047      -0.80915641       0.82692118      -0.35951254       0.26902537
He       7.23577929       2.17226338       8.56152439       0.34371995      -0.39256881       1.43387792      -0.49923821
X        5.51772499       3.19825172      10.11795998      -2.33949210       2.06836349       1.77254356      -2.42899989
H        5.51361036       5.21716213      11.57222557      -0.74514796       1.73309092      -1.81084467       2.02558911
He       5.55947256       5.30135298       8.28777790       0.28095948       0.49247207      -1.12319516       2.18912635
X        4.12703943       6.06636047      10.11962891      -2.55809908      -3.09628718      -0.07841205      -5.14263450
H        3.87107658       7.76928520      11.60397434      -0.72878435       0.57226508       1.96066446      -0.19608993
He       3.88599777       7.80287743       8.32140827       0.27447059       0.30251135       0.66696368       2.40287047
27
Lattice="9.491578102111816 0.0 0.0 -4.892338752746582 8.241594314575195 0.0 0.0 0.0 100.0" Properties=species:S:1:pos:R:3:energies:R:1:forces:R:3 original_dataset_index=8 energy=-28.418873946520282 pbc="F F F"
X        0.89837027       0.46181938       9.96041584      -2.82776657      -2.45080900      -0.57887813       1.13647322
H        0.83078545       2.19841361      11.65182972      -0.79602544      -0.15159740       0.23663075      -1.59038951
He       0.77748173       2.25949097       8.33101082       0.13805352       0.03407432       0.05392894       1.45910803
X       -0.81260723       3.10345268      10.05423069      -2.78464914       0.24144555      -0.13095068      -0.18668070
H       -0.81223893       4.94013023      11.65534210      -0.84566010      -0.98298210       0.12819417      -1.44937815
He      -0.85472322       5.00622940       8.54980373       0.34307010       0.49032493      -1.35619827      -3.21265979
X       -2.50166488       5.77478313       9.85046482      -2.42435868       0.78429001       2.49290761       4.74608081
H       -2.61282349       7.79100704      11.60568714      -0.69669751       1.22470281      -0.99426442      -1.32908526
He      -2.50754213       7.69689798       8.48151207       0.23416167       1.12993024       0.32152457      -1.39418703
X        4.01007891       0.49353549      10.03738689      -2.74758787      -1.79233919      -1.86196607       2.24399871
H        3.99013042       2.14205074      11.59043407      -0.84377186      -0.00448295       1.75309839      -0.26223329
He       4.00498390       2.19477367       8.39212227       0.09727696       0.23296687       0.28916599       0.43821563
X        2.42191100       3.06039500       9.96460724      -2.87794149      -0.72021196       0.32599775       2.02136365
H        2.10932660       4.98295593      11.66899014      -0.75014245       1.80608131      -0.79176841      -1.27840301