27
Lattice="9.811128616333008 0.0 0.0 -4.528778076171875 8.422697067260742 0.0 0.0 0.0 100.0" Properties=species:S:1:pos:R:3:energies:R:1:forces:R:3 original_dataset_index=0 energy=-27.06371828431633 pbc="F F F"
X        0.83472985       0.29282984      10.07725906      -1.37758585      -0.36862703       2.86798755       1.90693746
H        0.87171096       2.34922671      11.64810085      -1.26938360       0.15934516      -0.95941664      -0.70878611
He       0.86545634       2.26451945       8.18193626       0.03337993       0.11450844       0.06214583       3.16169060
X       -0.77480644       3.16883373      10.12756252      -1.48291446       1.82784136       1.97901646      -2.96404752
H       -0.62070400       5.19333458      11.81220150      -1.18234271      -0.11571372      -0.80014171      -1.86589716
He      -0.51218605       5.05976200       8.40774059      -0.28434547      -0.13198301       0.07412889       2.31966602
X       -2.18696141       6.01182938      10.01462173      -1.59875307       0.05963994      -0.94872267       1.17362129
H       -1.92230427       7.88123798      11.57541370      -1.42573169      -1.56712231      -0.52952736       1.16230375
He      -2.15987778       7.89304924       8.62920570      -0.39638645       0.38754395      -0.51221279      -3.18093223
X        4.02889585       0.32255852      10.04670334      -1.55151522       1.36796339       1.71825766      -1.02416870
H        4.12432289       2.25078487      11.55626202      -1.40350755      -0.76506247      -0.19731740       0.24199529
He       4.18692398       2.16217756       8.42734337      -0.33283391      -0.48496200       0.40480560       1.48637841
X        2.42883730       3.27767158      10.02679825      -1.42802855       1.37094473      -1.83422924      -0.63006035
H        2.79050684       5.17031860      11.55550194      -1.38874797      -0.10026709      -0.30780931       0.77767123
He       2.85467458       4.96361017       8.50356865      -0.10350453      -0.89500083       1.61388691       0.26143766
X        1.02212048       6.04715109      10.20094681      -1.39936404       0.51519272      -0.35775295      -2.60260100
H        1.05539882       8.00459957      11.58765030      -1.34477079       1.40619418      -0.12600085       0.06253272
He       1.29158020       7.83793068       8.53726864      -0.33429735      -1.69312907      -0.93642544      -1.65625196
X        7.37255144       0.37677875       9.85935688      -1.40556776       0.13188721       2.14108065       5.15810278
H        7.59042501       2.22612071      11.57322693      -1.26660897      -1.80419010      -1.20158015       0.30374330
He       7.52220058       2.40506291       8.32233429      -0.32428330      -0.93124720      -0.49245445       1.99986626
X        5.79919147       3.11027217      10.10192680      -1.30341513       0.92054813       1.60395966      -1.94361141
H        6.10283041       5.16892576      11.81806374      -1.05866728      -0.58905112      -0.43337808      -2.61058849
He       5.77532625       5.12753248       8.38165760      -0.18971259       1.57905914      -0.75101411       1.56379075
X        4.49017525       6.13691616      10.04595852      -1.62026512      -1.06070704      -0.61420902       0.33418868
H        4.36249113       7.85818481      11.65229511      -1.33541248       0.17251368       0.71017426      -1.28636773
He       4.50332785       8.12986565       8.47154522      -0.28915236       0.49388063      -2.17325125      -1.44061199
27
Lattice="9.261323928833008 0.0 0.0 -4.267256736755371 7.4276838302612305 0.0 0.0 0.0 100.0" Properties=species:S:1:pos:R:3:energies:R:1:forces:R:3 original_dataset_index=1 energy=-21.544519522418884 pbc="F F F"
X        0.60360032       0.37843621       9.81891251      -1.31691326       5.53099338      -0.63296156       5.53435664
H        0.91911787       2.02201366      11.54952526      -1.09686098       0.67256075       0.17409582      -1.39409067
He       1.03128731       1.97053099       8.50017738       0.58968021      -2.74438398       0.63473810      -7.63770931
X       -0.51454157       2.93493199       9.88790607      -1.75545059      -0.96616863      -2.38288363       3.30415993
H       -0.52815944       4.56262445      11.50951958      -1.12109364       0.95835059      -0.13949496       1.19355517
He      -0.38908303       4.44274330       8.21565628       0.03088811       0.15487366       1.55065207       1.01875183
X       -1.94773889       5.20902634       9.90304756      -1.85616245      -1.03775710       2.53304935      -2.00497329
H       -1.78727162       7.04925013      11.81041813      -0.57009308      -0.16078332       0.10030352      -2.75132763
He      -1.95886540       6.96653175       8.38280678       0.14027771       0.97238990       0.75781453       0.43440577
X        4.09290600       0.58632421       9.93478298      -1.41699833      -2.90192961      -6.39810153      -0.70219187
H        4.10207272       2.17888761      11.41976833      -1.01367410      -1.27211099       0.91242869       1.13961445
He       4.12575388       2.00502849       8.18958092      -0.28360630      -1.03191731       0.43510796      -0.80087661
X        2.47131586       2.79216981       9.73142815      -1.77736473       2.29952621       0.67866899       6.00134405
H        2.59809399       4.47816944      11.43465233      -0.88986184       1.75797472      -0.05262154      -0.14131926
He       2.48775744       4.50360489       8.22261143       0.00599551       0.96203394       0.85028090       0.52936578
X        1.10853696       5.39278936      10.06683636      -1.50721388      -1.25424455      -5.15245860      -4.34453608
H        1.17037940       6.91255856      11.45561218      -0.90109442       0.91119690       4.03303830       2.95566352
He       1.13867974       6.71359682       8.36565208       0.29534781       0.66496530       4.27565215      -0.35355542
X        7.04564285       0.53554255       9.97141933      -1.52497005      -0.38540613      -7.43197734      -3.40970761
H        7.07759905       1.85945809      11.53759098      -0.52226644       0.41893007       4.43749217       0.92807282
He       7.05558968       2.15078330       8.46797562       0.07468597       1.88408337      -0.21641644      -3.93043019
X        5.54956150       2.72385907       9.82791042      -1.55255561       1.01811770       3.80494322       2.07896261
H        5.77418184       4.48675108      11.30256271      -1.17334012      -0.57682194      -0.55137245       1.73344290
He       5.54778957       4.52775288       8.27774048       0.28393353       3.63688841      -2.02685385      -2.02897212
X        4.33773470       5.34816837       9.70010567      -1.65386450      -5.51471348      -0.37638526       4.81263049
H        4.25942659       6.99261093      11.46685696      -1.09573818      -0.82103352      -0.98093170      -0.40247955
He       4.42070150       6.99663115       8.24166489       0.06379412      -3.17561412       1.16419143      -1.76215716
27
Lattice="8.913963317871094 0.0 0.0 -4.676674842834473 8.108978271484375 0.0 0.0 0.0 100.0" Properties=species:S:1:pos:R:3:energies:R:1:forces:R:3 original_dataset_index=2 energy=-25.653214449918483 pbc="F F F"
X        0.77384341       0.45631468      10.05185986      -1.62395318       1.39481110      -0.59618069      -0.93120959
H        0.79559529       2.34602237      11.55108547      -1.08592501      -3.10125055      -2.63717404       2.90406687
He       0.89530420       2.10836172       8.55839252       0.07589197      -4.34129660      -0.73275915      -3.99064230
X       -0.74814445       3.14199543      10.08836937      -1.69191232      -0.88912809       0.88802304      -3.66478727
H       -0.90358615       5.06544781      11.61182404      -1.14481309      -0.69768595      -1.82080438      -0.05204090
He      -0.93922776       5.04845333       8.35510254      -0.14970262       0.65310401      -1.78671715       1.01712543
X       -2.43624306       5.68495750       9.93769169      -1.88336446       1.28328223       3.27753337      -0.39050869
H       -2.44883776       7.56626654      11.52970982      -1.14957474      -0.32039351      -0.59089157       1.90112485
He      -2.32393265       7.60288572       8.54413986      -0.06516531       0.04776175       0.43910195      -0.14163500
X        3.82342792       0.44048259      10.24693584      -1.51902862      -3.96275502       1.72498997      -9.03416555
H        3.47948265       2.26577258      11.61064434      -1.10905485       1.41593047       0.59816070       0.59931846
He       3.80905771       2.14922333       8.35842228       0.10745158      -2.10154146      -0.37615499       1.16336295
X        1.98769784       3.01720095       9.97900772      -1.18427815       7.51751252       4.15669017       2.22840439
H        1.98765600       4.77270412      11.75634861      -0.97165951       0.59957911       1.04743716      -2.32992763
He       1.88532543       4.96774721       8.63409424       0.02279206       0.72222154      -0.86060843      -3.67066995
X        0.48507380       5.89708853      10.07117176      -1.93843042       0.88141005       1.46220460      -0.15079841
H        0.34413245       7.72039413      11.57887268      -0.56989243       4.45941424      -1.85718874       4.79318205
He       0.56971812       7.69740772       8.24365044       0.10009879      -0.10690983      -0.84661309       2.36225523
X        6.69056320       0.38858727      10.02807045      -1.72265679      -0.52046300      -0.02187474      -2.14498533
H        6.67024374       2.20652151      11.49012566      -1.21520312      -0.99419681       0.28112561       1.82503562
He       6.50618124       2.12583399       8.47489166      -0.06739899       1.72958967       1.11620171      -0.37450978
X        5.01607418       3.24278831       9.93038940      -1.90534616       1.04707286      -1.63755213       1.15832221
H        5.14188147       4.92713785      11.45623779      -1.20172863      -1.96958698      -0.26202823       1.40675208
He       4.98768044       4.98143816       8.26005173      -0.43060224      -0.46116202      -0.64139349       0.68302999
X        3.54682851       5.83047342       9.93722534      -1.70015625      -0.23763490      -0.67629196       1.09854862
H        3.56827736       7.52769995      11.39132023      -1.29681346      -0.87164212       0.50740477       4.71288850
He       3.63988662       7.68411255       8.46053314      -0.33278850      -1.17604348      -0.15464009      -0.97753555
27
Lattice="9.35168170928955 0.0 0.0 -5.103549480438232 8.335490226745605 0.0 0.0 0.0 100.0" Properties=species:S:1:pos:R:3:energies:R:1:forces:R:3 original_dataset_index=3 energy=-28.363374098761533 pbc="F F F"
X        0.67860574       0.50587827      10.02767754      -1.77423539      -2.04996544      -3.20505220       0.37711931
H        0.48191553       2.14093852      11.52878952      -1.31894140      -0.10708209       1.92524771       0.45462256
He       0.45482931       2.06853223       8.40332985      -0.33109278       0.34181414       1.73197210      -1.25819112
X       -0.97568244       3.24671388       9.87284946      -1.72414759      -0.84240386      -0.42580025       3.45777017
H       -1.21068931       5.06972980      11.67529774      -1.18680229      -0.69482209      -0.72108209      -1.49242526
He      -1.19102645       5.13815880       8.48909664      -0.28382858      -0.13563295      -0.90788867      -3.22304846
X       -2.71062779       6.05135727       9.92020988      -1.68638520      -1.10185955       0.91690643       3.58292027
H       -2.86302376       7.91716719      11.67059708      -1.21799483       0.36179931      -0.55822703      -1.89547161
He      -3.14044142       7.94637918       8.38085747      -0.02707075       2.61428410      -0.69716754       0.34037435
X        3.89108324       0.38910943      10.00223732      -1.53711778      -3.73366616       2.06753400       2.44569366
H        3.76146150       2.41960168      11.56919384      -1.22691006      -0.93322495      -1.02141328      -0.87205894
He       3.53607750       2.31529212       8.48666286      -0.27701614       1.46776563      -0.30907465      -0.69770846
X        1.92767429       3.11113620       9.93457508      -1.52113166       1.50716078       2.29366189       1.59497462
H        2.01595592       5.09241056      11.59316921      -1.26315806      -0.81219465      -1.32958907      -0.83395596
He       1.89274204       5.27216768       8.38491917      -0.21151453       0.02355204      -1.89129949       0.39988943
X        0.27169347       5.78582668      10.02324390      -1.51844701       2.38060497       4.11818578       1.77725472
H        0.27069378       7.85884285      11.68685341      -1.14877317       0.72632234      -0.67362573      -2.14836067
He       0.11628816       7.86493921       8.49842930      -0.15696364       1.71412655      -1.50780573      -1.50165196
X        6.93338919       0.46458498       9.87283325      -1.74910887      -1.40045100       0.53662454       2.79847616
H        6.93543053       2.33217001      11.59029961      -1.15108513      -0.92277414      -0.10226810      -1.85953696
He       6.79729033       2.37511754       8.40148926      -0.41397381      -0.71237958      -0.13385301      -0.45557062
X        5.21956539       3.36631536      10.00203991      -1.64658587       0.30965234      -3.08702287      -1.79506568
H        5.09961224       4.97066832      11.44069958      -1.31448913       0.49432666       2.34886861       2.54103885
He       5.08269119       5.14315176       8.45591927      -0.50833151      -0.09701034      -0.37248498      -1.19736425
X        3.51464820       5.95339060      10.00440693      -1.72622346      -0.63329089       1.69569026      -0.76071348
H        3.22616649       7.87172365      11.57604408      -1.24798191       1.29313891      -0.35186734      -1.07821848
He       3.31161642       7.82839251       8.31314564      -0.19406353       0.94220975      -0.33916976       1.29920752
27
Lattice="10.797208786010742 0.0 0.0 -4.724135398864746 7.946281433105469 0.0 0.0 0.0 100.0" Properties=species:S:1:pos:R:3:energies:R:1:forces:R:3 original_dataset_index=4 energy=-23.939650849047467 pbc="F F F"
X        0.89635944       0.49482745      10.00132751      -1.41484433       0.67674665      -1.16776414       0.30613425
H        1.01863348       2.21678567      11.75346947      -0.96105429      -0.38284072       0.31681826      -2.00956985
He       1.05528247       2.17410874       8.37143326      -0.29825439       0.18294254       0.86136383       0.62816216
X       -0.71697247       2.96667886       9.97777081      -1.24578525      -0.15485263      -0.48549723       2.69234378
H       -0.60586917       4.88332272      11.58542061      -1.21229646      -0.27518707       0.04301573      -1.67586217
He      -0.53394252       4.66651249       8.48186207      -0.15749179      -0.28576855       2.05361048       0.42466529
X       -2.44063997       5.89234257       9.90943336      -1.21836875       1.42423320      -3.32430099       1.23560246
H       -2.11487746       7.55680037      11.50913811      -1.43632462      -0.16995689       0.50087449       0.33552840
He      -1.92251325       7.57371092       8.41393089      -0.37290817      -0.93431032       0.85264629      -0.34516758
X        4.45161915       0.37257066      10.01326180      -1.13012190       1.33939027       0.79180325       0.14408729
H        4.72418594       2.34870720      11.60035419      -1.26313429      -0.92590242      -0.72466423      -1.31721384
He       4.55180550       2.32586026       8.38360596      -0.29788933       1.15089300      -1.41200013       0.33445999
X        2.98406887       3.16847873       9.84058857      -1.27899026      -0.90104944      -2.41341412       3.34476032
H        3.21960139       4.80168819      11.69343758      -1.08823775      -0.01311559       0.78127671      -2.24114643
He       3.15023470       4.70387745       8.25871849      -0.05505012      -0.20488164       2.67741416       0.30301762
X        1.36554575       5.65560055      10.09983921      -1.05645738       0.22088692      -0.82957420      -1.81432215
H        1.53905356       7.37906647      11.68450832      -1.04003900      -0.30449014       1.29556399      -1.47318828
He       1.75011742       7.54186678       8.24862576      -0.15402274      -0.60742476      -0.20512804       2.16894453
X        8.11897087       0.54141957       9.89197636      -1.08488015       0.23866923      -4.02304789       3.32786829
H        8.11973095       2.18748331      11.69419384      -1.17894197       0.05855221       0.59272013      -2.13944531
He       8.16635799       2.19737554       8.52999783      -0.16503082       0.13118679       2.33570792      -1.88926500
X        6.33095980       3.08814430       9.99717426      -1.45268170       1.57790119       0.00652860      -0.24029974
H        6.66630363       4.88119555      11.57766628      -1.19997358      -0.18761139       0.67825430      -1.52882359
He       6.84745693       4.88303328       8.24653149      -0.32768732      -0.94042056      -0.04479893       1.38287200
X        4.94033766       5.64073277       9.84764862      -1.33719802       0.44942357      -1.25721596       2.15173022
H        5.19438410       7.47565174      11.47969055      -1.28291048      -0.57464449       0.30735044      -0.90685174
He       5.25336790       7.42311668       8.47724724      -0.22907598      -0.58836887       1.79245694      -1.19902148
27
Lattice="9.458852767944336 0.0 0.0 -4.708427429199219 8.432708740234375 0.0 0.0 0.0 100.0" Properties=species:S:1:pos:R:3:energies:R:1:forces:R:3 original_dataset_index=5 energy=-28.786929683118796 pbc="F F F"
X        0.74791241       0.33533147       9.98592186      -1.67702453      -0.38044115       0.49730065       1.36535754
H        0.96857041       2.14405036      11.57516289      -1.25959523      -0.95570254       1.15820836      -0.21010282
He       0.62332231       2.30962300       8.63421822      -0.14463716       1.17321397       0.03885662      -3.34025081
X       -0.76474065       3.35159874      10.07071972      -1.44446951      -1.60414219      -1.25938655       1.36128241
H       -0.74338067       5.26246595      11.58263779      -1.45005154       0.46227251      -1.02609035      -0.25627930
He      -0.94357163       5.14242554       8.39745426      -0.32202496       2.00783362      -1.72509073      -1.33738623
X       -2.27457595       5.92007446       9.94678116      -1.57168315      -3.27171660       2.78670978       2.45412470
H       -2.29434681       8.07487392      11.49853420      -1.05185565      -1.60151257      -2.72705092       2.06731713
He      -2.46772861       7.80063629       8.45688629      -0.34878656       0.93505854       0.28814960      -0.21429033
X        3.83385921       0.35000309      10.06576538      -1.64512954       2.16505268       1.84642722      -2.90972539
H        3.89961147       2.37261319      11.52928162      -1.34584653       0.28811994      -0.16127315      -0.25990956
He       3.81289005       2.19514155       8.43514633      -0.31668414       0.86844937       0.32068888       0.28340586
X        2.38088870       3.31683373       9.93483734      -1.56468529      -0.17564153      -1.36132505       1.35938164
H        2.38247871       5.14624023      11.40544701      -1.48831284      -0.79962413      -0.53563258       1.99428548
He       2.40849924       5.10627651       8.42321873      -0.58569360      -0.06645584      -0.34093750      -2.28831635
X        0.76684433       5.88362885       9.85292530      -1.35515380       0.06283871       2.80330066       1.66801783
H        0.86438400       8.09737396      11.69363213      -0.96782838      -0.42819309      -0.60618757      -1.71332850
He       0.65789539       7.89504814       8.37001896      -0.28179309       0.82133732       0.00426407       1.44340602
X        7.13745356       0.52237552       9.95221138      -1.74732812      -1.53917112      -1.86403464      -0.25503707
H        7.10448456       2.20130301      11.63295650      -1.30720659       0.03242347       1.53780448      -1.13092327
He       6.91497755       2.24622011       8.43909454      -0.20628246       1.47513572       1.23507689      -0.15544510
X        5.53835964       3.33085632       9.99668694      -1.68274626      -1.05767777      -2.45052923       1.11801794
H        5.44293690       5.15291595      11.54131699      -1.41069539       0.67782069       0.15643727      -0.05108894
He       5.60340261       4.97765493       8.42017555      -0.29513429      -0.84986565       1.30688908      -0.06819669
X        3.89215612       6.04769707       9.97453499      -1.65807827       1.49468467       1.10977735      -1.87685808
H        3.74520707       7.92267179      11.55897331      -1.29420145       1.53379816      -0.53148744      -0.40881450
He       4.07950926       7.95947886       8.30636787      -0.36400137      -1.26789547      -0.50086509       1.36135763
27
Lattice="8.86329174041748 0.0 0.0 -4.973175048828125 7.855757236480713 0.0 0.0 0.0 100.0" Properties=species:S:1:pos:R:3:energies:R:1:forces:R:3 original_dataset_index=6 energy=-26.00893993230655 pbc="F F F"
X        0.93555677       0.33658174       9.88046455      -1.46502283      -5.90824506       1.17978815       4.41237037
H        0.43506089       2.05114198      11.74446106      -1.05557594       0.68811620       0.04898872      -1.43598096
He       0.58891875       2.24857998       8.64468861       0.00424740       1.29218777      -0.26898848      -3.64076014
X       -0.98770040       3.04275918      10.00354576      -1.96337082       0.69512809       1.02861625       2.81099756
H       -0.84295219       4.87877655      11.52858925      -0.72073531      -3.85129572      -1.93099076       2.81502829
He      -1.00688052       4.69434834       8.35238457      -0.12416601      -0.38212825       0.98078094       1.59621923
X       -2.56630397       5.70289278      10.04293728      -1.93818745       0.96343309      -1.57283529      -0.42244869
H       -2.71569657       7.46188211      11.61322880      -1.24875178       0.50570003      -0.62661387      -0.11630758
He      -2.67552638       7.37120342       8.46500683      -0.20817775       2.07343668      -0.32488978      -2.07993036
X        3.69400716       0.55735570      10.07810879      -1.75074195       1.75365013      -4.58937122       0.61981597
H        3.60740852       2.17067957      11.66530991      -1.32033587      -0.61495750       0.73048238       1.20067518
He       3.60157824       2.03537083       8.55013466       0.00754399      -2.16362818       1.87239298      -1.65731908
X        2.06850696       3.04017735      10.21014023      -1.58362293      -1.08006616      -1.54470900      -5.00490489
H        1.86522830       4.74228811      11.44191265      -0.80313076       0.45534809       1.75281863       6.21743198
He       2.01337552       4.83714247       8.44752407       0.09971870      -1.54827504      -1.10036410       1.16756715
X        0.34500805       5.75113916      10.12797928      -1.80455033       2.54862330       0.52531464      -5.70462746
H        0.22010478       7.51917887      11.73936749      -1.05654663       0.12292379      -0.18911012      -1.30443104
He       0.40148851       7.37013912       8.50766087      -0.00029399      -2.00840989       0.81241240      -0.03512328
X        6.72643375       0.51513183      10.01674080      -2.17267437      -0.20621081      -1.35181116       0.21223872
H        6.49877834       2.00638866      11.71332169      -0.85479039      -0.81556911       2.14194914      -1.12982683
He       6.45324993       2.23431444       8.43041706      -0.14265627      -0.31513323      -0.48055234      -0.04206666
X        4.88182020       3.03170848       9.99855042      -1.86662182       3.75730232       0.54433792       2.61342995
H        4.91532087       4.75376081      11.72234726      -1.10319670      -0.64120064       0.31932841      -1.48642672
He       4.84373760       4.61523724       8.38416767       0.00915524      -0.37150749       1.90422192       0.95879370
X        3.32471108       5.72573805      10.06711769      -1.94454627       2.39972659      -0.36521915      -1.34721096
H        3.12901497       7.46228552      11.66436863      -0.93035163       1.30908005      -0.04643322      -0.96793700
He       3.09800839       7.36752272       8.25553894      -0.07155746       1.34197046       0.55045603       1.75073445
27
Lattice="9.662663459777832 0.0 0.0 -4.85795259475708 8.334839820861816 0.0 0.0 0.0 100.0" Properties=species:S:1:pos:R:3:energies:R:1:forces:R:3 original_dataset_index=7 energy=-26.292933958216445 pbc="F F F"
X        0.81956494       0.69634950      10.05811119      -1.02423088      -0.30905739      -6.64833228      -1.83303871
H        0.63767397       2.24827003      11.50368690      -1.11014209       1.17498391       3.48312897       2.61943566
He       0.89686620       2.24877334       8.41759777      -0.37446054      -0.44359923       2.40169252       0.05603406
X       -0.74714518       3.40418053      10.01025772      -1.40379791      -1.18245979      -2.90393227      -1.80407160
H       -0.73758203       5.19822979      11.47351074      -1.36899813      -0.85661016      -0.96797122       2.73057268
He      -0.94248265       5.08044481       8.37311649      -0.47905662       0.66796696       0.51127599       0.73513051
X       -2.45616317       5.95259714      10.03644466      -1.75129796      -0.21268269       0.70338812      -1.36275069
H       -2.36292505       7.75696421      11.68980312      -1.16806208      -0.34362917       1.21096145      -1.74567698
He      -2.41761780       7.72286081       8.45812225      -0.22903377      -0.33367503       1.70554908       0.72702553
X        3.99455476       0.58639902       9.99541473      -1.47043379       0.46874326      -4.19338085       1.23546144
H        4.12334251       2.14092350      11.56096935      -1.17686400      -1.74986319       1.90341708       1.69005212
He       4.09172058       2.35452533       8.55687618      -0.39006179      -1.21825719       0.86122747      -1.45407937
X        2.35684633       3.44429231       9.99117184      -1.25036947       0.61688072      -6.02416179       0.80270441
H        2.42505598       5.02598524      11.50309658      -1.32346263      -0.21744282       1.89154982       2.06310928
He       2.44040513       5.03526115       8.48841381      -0.23337037       0.09968355       2.40532398      -0.64427470
X        0.75138420       5.98787069      10.02082062      -1.67231947       1.14112412       1.18908693      -2.13090508
H        0.76638550       7.73245478      11.71222305      -1.22119572      -0.71227001       0.58888658      -1.89496378
He       0.88221180       7.97584677       8.55396271      -0.07773872      -3.05006500      -1.65404438      -2.49754366
X        7.08039618       0.35899210       9.98744488      -1.55100972       3.90758931       1.13084754       4.10994066
H        7.14972639       2.34458828      11.54248047      -1.28691929       0.83528536      -0.35572664       0.21169957
He       7.23577929       2.17226338       8.56152439      -0.19111169      -0.37503299       1.46526646      -0.49453080
X        5.51772499       3.19825172      10.11795998      -1.32521851       2.04918350       1.74200817      -2.45331484
H        5.51361036       5.21716213      11.57222557      -1.23747122       1.77555308      -1.77554352       2.00619627
He       5.55947256       5.30135298       8.28777790      -0.09580360       0.53353834      -1.13322104       2.25065881
X        4.12703943       6.06636047      10.11962891      -1.61094011      -3.10757151      -0.15382383      -5.16986463
H        3.87107658       7.76928520      11.60397434      -1.16247807       0.53159367       1.95303070      -0.18853802
He       3.88599777       7.80287743       8.32140827      -0.10708579       0.31009039       0.66349727       2.43553142
27
Lattice="9.491578102111816 0.0 0.0 -4.892338752746582 8.241594314575195 0.0 0.0 0.0 100.0" Properties=species:S:1:pos:R:3:energies:R:1:forces:R:3 original_dataset_index=8 energy=-28.471032454330203 pbc="F F F"
X        0.89837027       0.46181938       9.96041584      -1.80751444      -2.47980856      -0.55552199       1.16338094
H        0.83078545       2.19841361      11.65182972      -1.25119607      -0.14191142       0.22019700      -1.53089330
He       0.77748173       2.25949097       8.33101082      -0.31191657       0.06789896       0.04263126       1.43006620
X       -0.81260723       3.10345268      10.05423069      -1.75730619       0.25946568      -0.15461795      -0.18946646
H       -0.81223893       4.94013023      11.65534210      -1.29629169      -0.98220985       0.13703485      -1.50053565
He      -0.85472322       5.00622940       8.54980373      -0.31187625       0.48657026      -1.34346339      -3.25225885
X       -2.50166488       5.77478313       9.85046482      -1.33263999       0.74439514       2.55824965       4.80327233
H       -2.61282349       7.79100704      11.60568714      -1.14961944       1.24988512      -1.00763846      -1.38111590
He      -2.50754213       7.69689798       8.48151207      -0.34780914       1.14462890       0.33826042      -1.38173117
X        4.01007891       0.49353549      10.03738689      -1.59250042      -1.87525934      -1.80101981       2.15160467
H        3.99013042       2.14205074      11.59043407      -1.35044658      -0.02412993       1.75429068      -0.26595402
He       4.00498390       2.19477367       8.39212227      -0.44832939       0.22927460       0.31101026       0.43354391
X        2.42191100       3.06039500       9.96460724      -1.85260019      -0.72195580       0.33159171       2.04790769
H        2.10932660       4.98295593      11.66899014      -1.18172544       1.79715287      -0.81140290      -1.32294696