27
Lattice="9.811128616333008 0.0 0.0 -4.528778076171875 8.422697067260742 0.0 0.0 0.0 100.0" Properties=species:S:1:pos:R:3:energies:R:1:forces:R:3 original_dataset_index=0 energy=-27.09597042855076 pbc="F F F"
X        0.83472985       0.29282984      10.07725906      -1.33309447      -0.34025068       2.83276807       1.99299274
H        0.87171096       2.34922671      11.64810085      -1.42565520       0.14804313      -0.91827165      -0.79837645
He       0.86545634       2.26451945       8.18193626      -0.27066729       0.05381095       0.02698849       3.17843265
X       -0.77480644       3.16883373      10.12756252      -1.16988645       1.84342184       1.96223723      -3.01806413
H       -0.62070400       5.19333458      11.81220150      -1.34501874      -0.13097534      -0.81258735      -1.89521599
He      -0.51218605       5.05976200       8.40774059      -0.36390843      -0.10203950       0.07461796       2.31495455
X       -2.18696141       6.01182938      10.01462173      -1.46582852       0.04626036      -0.92280520       1.10287610
H       -1.92230427       7.88123798      11.57541370      -1.61263630      -1.60207738      -0.53652634       1.06458652
He      -2.15987778       7.89304924       8.62920570      -0.00379436       0.31506982      -0.49654148      -3.09937185
X        4.02889585       0.32255852      10.04670334      -1.57004782       1.40595615       1.68943400      -1.01844111
H        4.12432289       2.25078487      11.55626202      -1.49027293      -0.74427407      -0.19770150       0.27972290
He       4.18692398       2.16217756       8.42734337      -0.28627250      -0.49614480       0.44118300       1.53903372
X        2.42883730       3.27767158      10.02679825      -1.41065040       1.31268289      -1.76441665      -0.63070313
H        2.79050684       5.17031860      11.55550194      -1.45434027      -0.09387921      -0.35467853       0.82128584
He       2.85467458       4.96361017       8.50356865      -0.05733689      -0.83964214       1.62988496       0.27153385
X        1.02212048       6.04715109      10.20094681      -1.22426648       0.51604382      -0.38122632      -2.58122643
H        1.05539882       8.00459957      11.58765030      -1.53044008       1.44962807      -0.12093160       0.04949920
He       1.29158020       7.83793068       8.53726864      -0.07693432      -1.64251256      -0.94021232      -1.75582362
X        7.37255144       0.37677875       9.85935688      -1.43877195       0.03260100       2.15042936       5.20301316
H        7.59042501       2.22612071      11.57322693      -1.44715626      -1.74662013      -1.17902091       0.35190194
He       7.52220058       2.40506291       8.32233429      -0.33052757      -0.92487865      -0.46674217       2.02938947
X        5.79919147       3.11027217      10.10192680      -1.09844918       0.96783755       1.60739421      -1.98189077
H        6.10283041       5.16892576      11.81806374      -1.25994070      -0.60219228      -0.44596379      -2.64459961
He       5.77532625       5.12753248       8.38165760      -0.25700485       1.57712529      -0.74799746       1.62789054
X        4.49017525       6.13691616      10.04595852      -1.54617128      -1.09447745      -0.58782101       0.29890984
H        4.36249113       7.85818481      11.65229511      -1.51972945       0.18113425       0.68074070      -1.25826532
He       4.50332785       8.12986565       8.47154522      -0.10716774       0.51034977      -2.22223363      -1.44404483
27
Lattice="9.261323928833008 0.0 0.0 -4.267256736755371 7.4276838302612305 0.0 0.0 0.0 100.0" Properties=species:S:1:pos:R:3:energies:R:1:forces:R:3 original_dataset_index=1 energy=-21.485807982141306 pbc="F F F"
X        0.60360032       0.37843621       9.81891251      -1.17220480       5.76157310      -0.84143661       5.61024787
H        0.91911787       2.02201366      11.54952526      -1.46813594       0.65022954       0.13571435      -1.44726216
He       1.03128731       1.97053099       8.50017738       0.97511284      -2.84906489       0.65743334      -7.69633314
X       -0.51454157       2.93493199       9.88790607      -1.55994344      -0.98182406      -2.23780677       3.18482172
H       -0.52815944       4.56262445      11.50951958      -1.43372251       0.95129356      -0.17366726       1.21383616
He      -0.38908303       4.44274330       8.21565628      -0.05913004       0.18115427       1.51639530       1.07473423
X       -1.94773889       5.20902634       9.90304756      -1.40287338      -1.13078188       2.44524990      -2.08526515
H       -1.78727162       7.04925013      11.81041813      -1.03127834      -0.15856390       0.16504492      -3.02069556
He      -1.95886540       6.96653175       8.38280678      -0.05953315       1.02022230       0.80052036       0.54449051
X        4.09290600       0.58632421       9.93478298      -1.06269070      -2.91463389      -6.42548481      -0.79710551
H        4.10207272       2.17888761      11.41976833      -1.29142937      -1.47185881       0.88154527       1.17093400
He       4.12575388       2.00502849       8.18958092      -0.03068959      -1.28291069       0.48085725      -0.74228215
X        2.47131586       2.79216981       9.73142815      -1.59889094       2.49298281       0.68102407       6.19195786
H        2.59809399       4.47816944      11.43465233      -1.35761568       1.69237040       0.02834779      -0.15975782
He       2.48775744       4.50360489       8.22261143      -0.10697655       0.97205353       0.79689911       0.53892656
X        1.10853696       5.39278936      10.06683636      -0.73085589      -1.14130483      -5.21104847      -4.22732304
H        1.17037940       6.91255856      11.45561218      -1.39366126       0.87955573       4.02008381       2.93708306
He       1.13867974       6.71359682       8.36565208       0.15601531       0.66757141       4.35811136      -0.39546055
X        7.04564285       0.53554255       9.97141933      -0.83196858      -0.34225903      -7.43259424      -3.22104474
H        7.07759905       1.85945809      11.53759098      -1.19797313       0.48348198       4.35916593       1.01883883
He       7.05558968       2.15078330       8.46797562       0.46175296       1.95404097      -0.03056946      -3.91990621
X        5.54956150       2.72385907       9.82791042      -1.48790884       1.01468484       3.97905709       1.95464842
H        5.77418184       4.48675108      11.30256271      -1.57974127      -0.48924519      -0.65277843       1.69205528
He       5.54778957       4.52775288       8.27774048       0.37698831       3.69808229      -2.09768196      -1.99571497
X        4.33773470       5.34816837       9.70010567      -1.41066048      -5.63413236      -0.26180665       4.72603824
H        4.25942659       6.99261093      11.46685696      -1.40945095      -0.91246097      -1.04131486      -0.39146763
He       4.42070150       6.99663115       8.24166489       0.22165745      -3.11025527       1.10073777      -1.75899473
27
Lattice="8.913963317871094 0.0 0.0 -4.676674842834473 8.108978271484375 0.0 0.0 0.0 100.0" Properties=species:S:1:pos:R:3:energies:R:1:forces:R:3 original_dataset_index=2 energy=-25.58117733122749 pbc="F F F"
X        0.77384341       0.45631468      10.05185986      -1.62824213       1.40567760      -0.60576531      -0.90808586
H        0.79559529       2.34602237      11.55108547      -1.52855450      -3.11102503      -2.73310073       2.84558429
He       0.89530420       2.10836172       8.55839252       0.47923836      -4.53662157      -0.84143611      -4.15555008
X       -0.74814445       3.14199543      10.08836937      -1.26044378      -0.86219626       0.94174897      -3.59215313
H       -0.90358615       5.06544781      11.61182404      -1.48373532      -0.80203427      -1.80067348       0.00375295
He      -0.93922776       5.04845333       8.35510254      -0.14818049       0.72565149      -1.79624489       1.01854055
X       -2.43624306       5.68495750       9.93769169      -1.59750509       1.26232130       3.32823162      -0.44230402
H       -2.44883776       7.56626654      11.52970982      -1.49585873      -0.37334713      -0.58431192       1.89643439
He      -2.32393265       7.60288572       8.54413986      -0.05137103       0.03417752       0.39181322      -0.17050195
X        3.82342792       0.44048259      10.24693584      -0.66905955      -4.02552476       1.78244136      -9.05706932
H        3.47948265       2.26577258      11.61064434      -1.44643935       1.47193420       0.60083173       0.58786610
He       3.80905771       2.14922333       8.35842228      -0.09174678      -2.08107992      -0.35967339       1.35775055
X        1.98769784       3.01720095       9.97900772      -0.69742163       7.79897809       4.19877838       2.28000680
H        1.98765600       4.77270412      11.75634861      -1.31749710       0.59713997       1.11739442      -2.22723347
He       1.88532543       4.96774721       8.63409424       0.21436473       0.77934413      -0.81505996      -3.86946297
X        0.48507380       5.89708853      10.07117176      -1.56928100       0.92822574       1.50530511      -0.12830406
H        0.34413245       7.72039413      11.57887268      -1.06894802       4.56523386      -2.03541958       4.61787192
He       0.56971812       7.69740772       8.24365044      -0.20119373      -0.14216790      -0.75405832       2.48983512
X        6.69056320       0.38858727      10.02807045      -1.59704663      -0.59376733      -0.06449621      -2.10038465
H        6.67024374       2.20652151      11.49012566      -1.57155898      -1.02005653       0.29489325       1.87800463
He       6.50618124       2.12583399       8.47489166      -0.03457974       1.70211933       1.14976773      -0.41577940
X        5.01607418       3.24278831       9.93038940      -1.70647874       1.05652190      -1.66446876       1.18502235
H        5.14188147       4.92713785      11.45623779      -1.53889722      -1.99397028      -0.29224185       1.40999923
He       4.98768044       4.98143816       8.26005173      -0.26265697      -0.50331866      -0.62307831       0.72985458
X        3.54682851       5.83047342       9.93722534      -1.57356831      -0.14100548      -0.79314009       1.09765395
H        3.56827736       7.52769995      11.39132023      -1.61994111      -0.87449841       0.57186198       4.63466446
He       3.63988662       7.68411255       8.46053314      -0.11457450      -1.26671069      -0.11989836      -0.96601314
27
Lattice="9.35168170928955 0.0 0.0 -5.103549480438232 8.335490226745605 0.0 0.0 0.0 100.0" Properties=species:S:1:pos:R:3:energies:R:1:forces:R:3 original_dataset_index=3 energy=-28.33231346322631 pbc="F F F"
X        0.67860574       0.50587827      10.02767754      -1.61868514      -2.06603118      -3.24617969       0.45105543
H        0.48191553       2.14093852      11.52878952      -1.55944577      -0.14594019       1.95285163       0.51186876
He       0.45482931       2.06853223       8.40332985      -0.09161414       0.38799448       1.78008660      -1.30011140
X       -0.97568244       3.24671388       9.87284946      -1.59969703      -0.86455190      -0.50738669       3.49726318
H       -1.21068931       5.06972980      11.67529774      -1.43241037      -0.70048160      -0.70384065      -1.48220854
He      -1.19102645       5.13815880       8.48909664       0.03517093      -0.12526043      -0.85652868      -3.33135201
X       -2.71062779       6.05135727       9.92020988      -1.64452735      -1.02504735       0.94472488       3.62213035
H       -2.86302376       7.91716719      11.67059708      -1.44147160       0.34451729      -0.55754006      -1.86424155
He      -3.14044142       7.94637918       8.38085747      -0.12453760       2.62993952      -0.68574279       0.23954880
X        3.89108324       0.38910943      10.00223732      -1.42685535      -3.60910473       1.95589713       2.51120617
H        3.76146150       2.41960168      11.56919384      -1.45448593      -0.94059507      -1.04387677      -0.87006500
He       3.53607750       2.31529212       8.48666286      -0.14136026       1.45299118      -0.29779076      -0.73666103
X        1.92767429       3.11113620       9.93457508      -1.37789890       1.50299356       2.38895414       1.55679742
H        2.01595592       5.09241056      11.59316921      -1.47725463      -0.77994544      -1.31993966      -0.80902409
He       1.89274204       5.27216768       8.38491917      -0.22364522       0.05026593      -1.84025473       0.39605134
X        0.27169347       5.78582668      10.02324390      -1.47401244       2.41085373       4.17548605       1.80140918
H        0.27069378       7.85884285      11.68685341      -1.37033189       0.71696359      -0.67866073      -2.16039221
He       0.11628816       7.86493921       8.49842930      -0.00575296       1.65879472      -1.51062357      -1.52876627
X        6.93338919       0.46458498       9.87283325      -1.66837709      -1.38942312       0.49948947       2.77909297
H        6.93543053       2.33217001      11.59029961      -1.40690466      -0.96998903      -0.14905490      -1.85094539
He       6.79729033       2.37511754       8.40148926      -0.25315421      -0.72231913      -0.11083000      -0.42035165
X        5.21956539       3.36631536      10.00203991      -1.47049874       0.34977015      -3.13231241      -1.79259847
H        5.09961224       4.97066832      11.44069958      -1.57514748       0.50313088       2.34480578       2.54413621
He       5.08269119       5.14315176       8.45591927      -0.18413649      -0.11136424      -0.36225581      -1.21517542
X        3.51464820       5.95339060      10.00440693      -1.65191176      -0.66369635       1.66566411      -0.74869972
H        3.22616649       7.87172365      11.57604408      -1.44691008       1.24323838      -0.36136259      -1.11810081
He       3.31161642       7.82839251       8.31314564      -0.24645729       0.86229596      -0.34377949       1.31813411
27
Lattice="10.797208786010742 0.0 0.0 -4.724135398864746 7.946281433105469 0.0 0.0 0.0 100.0" Properties=species:S:1:pos:R:3:energies:R:1:forces:R:3 original_dataset_index=4 energy=-23.900130035812573 pbc="F F F"
X        0.89635944       0.49482745      10.00132751      -1.44645068       0.58734156      -1.19531046       0.30760294
H        1.01863348       2.21678567      11.75346947      -1.17550462      -0.39282530       0.34517655      -1.99163469
He       1.05528247       2.17410874       8.37143326      -0.22651624       0.09773584       0.90544867       0.57309472
X       -0.71697247       2.96667886       9.97777081      -1.31167592      -0.13801219      -0.57487497       2.69429514
H       -0.60586917       4.88332272      11.58542061      -1.32398649      -0.05624698       0.06069892      -1.69547676
He      -0.53394252       4.66651249       8.48186207      -0.08368053      -0.13068170       2.03993033       0.46695170
X       -2.44063997       5.89234257       9.90943336      -1.20646901       1.31398720      -3.38057886       1.21005672
H       -2.11487746       7.55680037      11.50913811      -1.51203694      -0.00589288       0.48506888       0.35618809
He      -1.92251325       7.57371092       8.41393089      -0.15417479      -0.83898391       0.93468657      -0.37185097
X        4.45161915       0.37257066      10.01326180      -1.01255967       1.25030453       0.75081481       0.11443176
H        4.72418594       2.34870720      11.60035419      -1.42719289      -0.99461867      -0.65616146      -1.33753253
He       4.55180550       2.32586026       8.38360596      -0.18269553       1.18334793      -1.56495822       0.33392723
X        2.98406887       3.16847873       9.84058857      -1.20760259      -0.96778031      -2.37557056       3.45435226
H        3.21960139       4.80168819      11.69343758      -1.25099003      -0.10277113       0.73582983      -2.28411688
He       3.15023470       4.70387745       8.25871849      -0.04583520      -0.22215295       2.76307521       0.32590401
X        1.36554575       5.65560055      10.09983921      -0.72831846       0.15618499      -0.76388697      -1.77299503
H        1.53905356       7.37906647      11.68450832      -1.19626605      -0.29402216       1.24681417      -1.57507550
He       1.75011742       7.54186678       8.24862576      -0.30187933      -0.67808911      -0.25469499       2.18960393
X        8.11897087       0.54141957       9.89197636      -1.17028091       0.12866057      -4.01416266       3.22409148
H        8.11973095       2.18748331      11.69419384      -1.33190917       0.13563844       0.62236059      -2.13845630
He       8.16635799       2.19737554       8.52999783       0.07879726       0.20394106       2.39151418      -1.78237974
X        6.33095980       3.08814430       9.99717426      -1.35529966       1.53668823      -0.04264603      -0.20772356
H        6.66630363       4.88119555      11.57766628      -1.34368534      -0.13814183       0.71827993      -1.54857800
He       6.84745693       4.88303328       8.24653149      -0.30947546      -0.95861791      -0.03048795       1.38215782
X        4.94033766       5.64073277       9.84764862      -1.23865764       0.46023198      -1.29006927       2.17898153
H        5.19438410       7.47565174      11.47969055      -1.43139813      -0.55615734       0.32197115      -0.84042913
He       5.25336790       7.42311668       8.47724724      -0.00438602      -0.57906766       1.82173342      -1.26538996
27
Lattice="9.458852767944336 0.0 0.0 -4.708427429199219 8.432708740234375 0.0 0.0 0.0 100.0" Properties=species:S:1:pos:R:3:energies:R:1:forces:R:3 original_dataset_index=5 energy=-28.79789487680826 pbc="F F F"
X        0.74791241       0.33533147       9.98592186      -1.75942078      -0.34603816       0.54685522       1.44283220
H        0.96857041       2.14405036      11.57516289      -1.46461761      -0.98190785       1.13520846      -0.26476432
He       0.62332231       2.30962300       8.63421822       0.13808002       1.10389886       0.03303024      -3.27942259
X       -0.76474065       3.35159874      10.07071972      -1.33982672      -1.61279910      -1.32043576       1.37599770
H       -0.74338067       5.26246595      11.58263779      -1.64298100       0.44724847      -0.99402131      -0.21448724
He      -0.94357163       5.14242554       8.39745426      -0.10740289       2.00674454      -1.71023229      -1.32684700
X       -2.27457595       5.92007446       9.94678116      -1.60743557      -3.27768593       2.79748942       2.48390245
H       -2.29434681       8.07487392      11.49853420      -1.35538915      -1.62279927      -2.76292416       2.08876704
He      -2.46772861       7.80063629       8.45688629      -0.17768329       0.99230130       0.29276015      -0.23786962
X        3.83385921       0.35000309      10.06576538      -1.48972235       2.24062732       1.88273569      -2.94312169
H        3.89961147       2.37261319      11.52928162      -1.50148305       0.28591333      -0.16178255      -0.25352719
He       3.81289005       2.19514155       8.43514633      -0.22627489       0.87718081       0.32477852       0.29880664
X        2.38088870       3.31683373       9.93483734      -1.67367808      -0.14063480      -1.43686696       1.32948857
H        2.38247871       5.14624023      11.40544701      -1.70065923      -0.85593895      -0.52069291       1.91929812
He       2.40849924       5.10627651       8.42321873      -0.19123357      -0.11016005      -0.33206789      -2.22146211
X        0.76684433       5.88362885       9.85292530      -1.26298757       0.03494411       2.81911221       1.62789668
H        0.86438400       8.09737396      11.69363213      -1.19239193      -0.43624792      -0.59312645      -1.75819791
He       0.65789539       7.89504814       8.37001896      -0.30891385       0.82369896       0.02012457       1.41464311
X        7.13745356       0.52237552       9.95221138      -1.56280758      -1.61073554      -1.87288631      -0.23991133
H        7.10448456       2.20130301      11.63295650      -1.49469319       0.04605829       1.52330803      -1.12563012
He       6.91497755       2.24622011       8.43909454      -0.14746196       1.48538016       1.24640048      -0.15080796
X        5.53835964       3.33085632       9.99668694      -1.65163052      -1.03901120      -2.51360489       1.13883886
H        5.44293690       5.15291595      11.54131699      -1.60692162       0.67888887       0.18985782      -0.05325997
He       5.60340261       4.97765493       8.42017555      -0.17981248      -0.80507620       1.29123769      -0.07634971
X        3.89215612       6.04769707       9.97453499      -1.52068025       1.52940628       1.12602076      -1.86926932
H        3.74520707       7.92267179      11.55897331      -1.47114423       1.57233273      -0.52683007      -0.44808571
He       4.07950926       7.95947886       8.30636787      -0.29872155      -1.28558908      -0.48344760       1.34254338
27
Lattice="8.86329174041748 0.0 0.0 -4.973175048828125 7.855757236480713 0.0 0.0 0.0 100.0" Properties=species:S:1:pos:R:3:energies:R:1:forces:R:3 original_dataset_index=6 energy=-25.943882740032578 pbc="F F F"
X        0.93555677       0.33658174       9.88046455      -1.19010529      -5.85276601       1.13684894       4.43690939
H        0.43506089       2.05114198      11.74446106      -1.43095604       0.82588263       0.03950710      -1.44521138
He       0.58891875       2.24857998       8.64468861       0.24159142       1.28404780      -0.30269328      -3.75106903
X       -0.98770040       3.04275918      10.00354576      -1.81025398       0.61408549       0.88666747       2.79840622
H       -0.84295219       4.87877655      11.52858925      -1.26338839      -3.93659805      -1.93726860       2.81083116
He      -1.00688052       4.69434834       8.35238457      -0.20176980      -0.42569168       1.00424248       1.58500441
X       -2.56630397       5.70289278      10.04293728      -1.63020430       0.92885754      -1.55509231      -0.39327851
H       -2.71569657       7.46188211      11.61322880      -1.54334128       0.59836532      -0.66753797      -0.11655770
He      -2.67552638       7.37120342       8.46500683       0.06825652       2.04677117      -0.21636752      -2.03410299
X        3.69400716       0.55735570      10.07810879      -1.47438880       1.71266508      -4.68399051       0.66127553
H        3.60740852       2.17067957      11.66530991      -1.60229276      -0.68986872       0.79072859       1.19392749
He       3.60157824       2.03537083       8.55013466       0.25223098      -2.21813006       1.82904931      -1.59670205
X        2.06850696       3.04017735      10.21014023      -1.21226650      -0.85197359      -1.53728302      -4.96206160
H        1.86522830       4.74228811      11.44191265      -1.21162702       0.38784287       1.72749175       6.28438220
He       2.01337552       4.83714247       8.44752407      -0.03982055      -1.57627123      -1.06143031       1.12740874
X        0.34500805       5.75113916      10.12797928      -1.16174369       2.73619031       0.49887924      -5.81608134
H        0.22010478       7.51917887      11.73936749      -1.40765557       0.06145127      -0.14534684      -1.31962479
He       0.40148851       7.37013912       8.50766087      -0.04592281      -1.99087945       0.81948630      -0.01721299
X        6.72643375       0.51513183      10.01674080      -1.69691730      -0.25411436      -1.33620654       0.12047240
H        6.49877834       2.00638866      11.71332169      -1.24244813      -0.84920264       2.23585292      -1.07687858
He       6.45324993       2.23431444       8.43041706      -0.09134712      -0.28770808      -0.45739459      -0.04562639
X        4.88182020       3.03170848       9.99855042      -1.62093300       3.80896444       0.51656729       2.65384831
H        4.91532087       4.75376081      11.72234726      -1.42664490      -0.65292773       0.29068109      -1.55492185
He       4.84373760       4.61523724       8.38416767      -0.14027237      -0.38362792       1.99528600       0.96774743
X        3.32471108       5.72573805      10.06711769      -1.49555451       2.39188441      -0.28564314      -1.40429826
H        3.12901497       7.46228552      11.66436863      -1.32376142       1.26316659      -0.10051809      -0.87274377
He       3.09800839       7.36752272       8.25553894      -0.24234614       1.30958504       0.51548381       1.76615720
27
Lattice="9.662663459777832 0.0 0.0 -4.85795259475708 8.334839820861816 0.0 0.0 0.0 100.0" Properties=species:S:1:pos:R:3:energies:R:1:forces:R:3 original_dataset_index=7 energy=-26.3315757090064 pbc="F F F"
X        0.81956494       0.69634950      10.05811119      -0.66858953      -0.27075009      -6.55497107      -1.84380033
H        0.63767397       2.24827003      11.50368690      -1.38471779       1.21246997       3.38583270       2.73166466
He       0.89686620       2.24877334       8.41759777      -0.22204507      -0.46462876       2.34065888      -0.01586252
X       -0.74714518       3.40418053      10.01025772      -1.34662177      -1.10575614      -2.90065138      -1.75612659
H       -0.73758203       5.19822979      11.47351074      -1.59207002      -0.84387541      -0.98638754       2.73570185
He      -0.94248265       5.08044481       8.37311649      -0.29855003       0.63073081       0.54250366       0.73336717
X       -2.45616317       5.95259714      10.03644466      -1.73008731      -0.17545125       0.77803430      -1.35704917
H       -2.36292505       7.75696421      11.68980312      -1.35058463      -0.39602121       1.18079440      -1.69735696
He      -2.41761780       7.72286081       8.45812225      -0.22322996      -0.32581102       1.66029204       0.67549907
X        3.99455476       0.58639902       9.99541473      -1.35749222       0.43091671      -4.13658151       1.13644966
H        4.12334251       2.14092350      11.56096935      -1.50525960      -1.82917518       1.87959225       1.68973409
He       4.09172058       2.35452533       8.55687618      -0.10632183      -1.16337488       0.83967946      -1.48283315
X        2.35684633       3.44429231       9.99117184      -1.14909380       0.62250637      -5.96845362       0.76758212
H        2.42505598       5.02598524      11.50309658      -1.55534514      -0.25285711       1.85165028       2.08813091
He       2.44040513       5.03526115       8.48841381      -0.08436701       0.13938207       2.40318589      -0.59258889
X        0.75138420       5.98787069      10.02082062      -1.46260512       1.18553122       1.20642107      -2.12122791
H        0.76638550       7.73245478      11.71222305      -1.42972815      -0.69549090       0.56435828      -1.82563935
He       0.88221180       7.97584677       8.55396271       0.15717071      -3.02695638      -1.59810481      -2.48584728
X        7.08039618       0.35899210       9.98744488      -1.69006150       3.87793088       1.05029271       4.05764746
H        7.14972639       2.34458828      11.54248047      -1.46781744       0.80603947      -0.32963823       0.22865349
He       7.23577929       2.17226338       8.56152439      -0.05150586      -0.45850333       1.43433323      -0.46135093
X        5.51772499       3.19825172      10.11795998      -1.11994971       2.10692677       1.85685001      -2.42970632
H        5.51361036       5.21716213      11.57222557      -1.46367269       1.74069673      -1.76108509       2.00916706
He       5.55947256       5.30135298       8.28777790      -0.25232677       0.48465128      -1.16951809       2.23186408
X        4.12703943       6.06636047      10.11962891      -1.34350918      -3.12774843      -0.15480330      -5.22006320
H        3.87107658       7.76928520      11.60397434      -1.36881591       0.60661260       1.94208771      -0.21974050
He       3.88599777       7.80287743       8.32140827      -0.26437836       0.29200585       0.64362818       2.42373157
27
Lattice="9.491578102111816 0.0 0.0 -4.892338752746582 8.241594314575195 0.0 0.0 0.0 100.0" Properties=species:S:1:pos:R:3:energies:R:1:forces:R:3 original_dataset_index=8 energy=-28.419657182472868 pbc="F F F"
X        0.89837027       0.46181938       9.96041584      -1.65731245      -2.49665704      -0.53730875       1.18604122
H        0.83078545       2.19841361      11.65182972      -1.47451380      -0.15253498       0.19691825      -1.58676563
He       0.77748173       2.25949097       8.33101082      -0.33606828       0.07722124       0.04514187       1.48159797
X       -0.81260723       3.10345268      10.05423069      -1.63815212       0.30499350      -0.11990942      -0.17145959
H       -0.81223893       4.94013023      11.65534210      -1.50360122      -0.99152553       0.13273390      -1.45501604
He      -0.85472322       5.00622940       8.54980373       0.01479546       0.49592395      -1.30729403      -3.31646172
X       -2.50166488       5.77478313       9.85046482      -1.36127673       0.81430078       2.59055178       4.79932041
H       -2.61282349       7.79100704      11.60568714      -1.41987565       1.28752013      -1.03210161      -1.37585668
He      -2.50754213       7.69689798       8.48151207      -0.13853564       1.15217810       0.35632771      -1.39735184
X        4.01007891       0.49353549      10.03738689      -1.65345116      -1.85588686      -1.86168402       2.23411776
H        3.99013042       2.14205074      11.59043407      -1.57111248      -0.06813142       1.73460174      -0.25833852
He       4.00498390       2.19477367       8.39212227      -0.31003049       0.23884169       0.27078187       0.44159306
X        2.42191100       3.06039500       9.96460724      -1.72704189      -0.74268494       0.30572766       2.00231395
H        2.10932660       4.98295593      11.66899014      -1.42538151       1.82385321      -0.78346706      -1.27358584