12
Lattice="3.145899772644043 0.0 0.0 0.0 5.448899745941162 0.0 0.0 0.0 29.786888122558594" Properties=species:S:1:pos:R:3:energies:R:1:forces:R:3 original_dataset_index=0 energy=-0.3868407465695478 pbc="F F F"
X       -0.65538841      -0.22704116      11.57172203       0.00677107      -0.00083774      -0.00251827       0.00789622
H       -0.65538841       1.58926165      13.14344501       0.20839865      -0.00306229      -0.02028220       0.08818229
He      -0.65538841       1.58926165       9.99999905      -0.00559311       0.00004901       0.00040005       0.00364344
X        0.91754699       2.49741316      11.57172203       0.00677100      -0.00081238      -0.00251520       0.00789178
H        0.91754699       4.31371593      13.14344501       0.20840041      -0.00303971      -0.02026801       0.08816741
He       0.91754699       4.31371593       9.99999905      -0.00559308       0.00005054       0.00040335       0.00364312
Li       2.22835279       1.13518381      18.21516800      -0.03132102       0.00060884       0.00006121      -0.00535707
Be       2.22835279       2.95148659      19.78689003      -0.00561015       0.00000200       0.00004096      -0.00338081
B        2.22835279       2.95148659      16.64344406      -0.36606759       0.00321763       0.02228477      -0.09098897
Li       3.80128813       3.85963798      18.21516800      -0.03132090       0.00060523       0.00006122      -0.00535719
Be       3.80128813       5.67594099      19.78689003      -0.00561022       0.00000236       0.00004107      -0.00338026
B        3.80128813       5.67594099      16.64344406      -0.36606581       0.00321650       0.02229105      -0.09095998
12
Lattice="3.145899772644043 0.0 0.0 0.0 5.448899745941162 0.0 0.0 0.0 30.086891174316406" Properties=species:S:1:pos:R:3:energies:R:1:forces:R:3 original_dataset_index=1 energy=-0.3276748055303366 pbc="F F F"
X        0.78648216      -0.45407885      11.57172203       0.00141900      -0.00000934      -0.00001065       0.00613411
H        0.78648216       1.36222398      13.14344501       0.14233821       0.00001256       0.00000569       0.10998660
He       0.78648216       1.36222398       9.99999905      -0.00558261      -0.00000038      -0.00000163       0.00454992
X        2.35941768       2.27037573      11.57172203       0.00141899       0.00000218      -0.00000066       0.00612222
H        2.35941768       4.08667850      13.14344501       0.14230458       0.00000693       0.00001375       0.11000572
He       2.35941768       4.08667850       9.99999905      -0.00558261       0.00000011       0.00000031       0.00455100
Li       0.78648216       1.36222112      18.51516724      -0.01933283      -0.00000110      -0.00000261      -0.00785821
Be       0.78648216       3.17852402      20.08689117      -0.00558261       0.00000022      -0.00000001      -0.00155626
B        0.78648216       3.17852402      16.94344521      -0.27708088      -0.00000029       0.00000288      -0.11127773
Li       2.35941768       4.08667564      18.51516724      -0.01933278       0.00000002      -0.00000426      -0.00785716
Be       2.35941768       5.90297842      20.08689117      -0.00558261      -0.00000013       0.00000014      -0.00155657
B        2.35941768       5.90297842      16.94344521      -0.27707868      -0.00001079      -0.00000294      -0.11124358
12
Lattice="3.145899772644043 0.0 0.0 0.0 5.448899745941162 0.0 0.0 0.0 28.386890411376953" Properties=species:S:1:pos:R:3:energies:R:1:forces:R:3 original_dataset_index=2 energy=0.6313761730813356 pbc="F F F"
X       -0.26215097      -1.81630349      11.57172203       0.08737414       0.01004425       0.00741708      -0.01125692
H       -0.26215097      -0.00000063      13.14344501       0.71826915       0.62476460       0.43324064      -1.62155304
He      -0.26215097      -0.00000063       9.99999905      -0.01368802      -0.00110304      -0.00206197       0.00095165
X        1.31078446       0.90815079      11.57172203       0.08736532       0.01009058       0.00738750      -0.01124235
H        1.31078446       2.72445369      13.14344501       0.71823567       0.62460643       0.43314553      -1.62133192
He       1.31078446       2.72445369       9.99999905      -0.01368791      -0.00110135      -0.00206379       0.00095969
Li       1.83511531       2.72444606      16.81516838      -0.14805184      -0.00350949      -0.00343741       0.00876795
Be       1.83511531       4.54074907      18.38689041      -0.02472612      -0.00126795      -0.00029966      -0.00564877
B        1.83511531       4.54074907      15.24344540      -0.30344679      -0.62896363      -0.43484472       1.62873717
Li       3.40805078       5.44890022      16.81516838      -0.14806038      -0.00350220      -0.00343090       0.00874527
Be       3.40805078       7.26520300      18.38689041      -0.02472600      -0.00127321      -0.00029034      -0.00565060
B        3.40805078       7.26520300      15.24344540      -0.30348104      -0.62878507      -0.43476188       1.62852185
12
Lattice="3.145899772644043 0.0 0.0 0.0 5.448899745941162 0.0 0.0 0.0 30.986888885498047" Properties=species:S:1:pos:R:3:energies:R:1:forces:R:3 original_dataset_index=3 energy=-0.17583585824619208 pbc="F F F"
X        0.78648216      -0.22704116      11.57172203      -0.00519383      -0.00000364      -0.00013429      -0.00123526
H        0.78648216       1.58926165      13.14344501       0.03472151      -0.00000166       0.00361969       0.05428801
He       0.78648216       1.58926165       9.99999905      -0.00558261      -0.00000023      -0.00003385       0.00010689
X        2.35941768       2.49741316      11.57172203      -0.00519390       0.00000411      -0.00013519      -0.00123635
H        2.35941768       4.31371593      13.14344501       0.03471347       0.00000267       0.00362383       0.05429923
He       2.35941768       4.31371593       9.99999905      -0.00558261       0.00000004      -0.00003351       0.00010548
Li       0.78648216       1.13518381      19.41516685      -0.00638358       0.00000009       0.00004912       0.00067409
Be       0.78648216       2.95148659      20.98689079      -0.00558261      -0.00000000       0.00000536       0.00052053
B        0.78648216       2.95148659      17.84344482      -0.09989295      -0.00000083      -0.00350651      -0.05435870
Li       2.35941768       3.85963798      19.41516685      -0.00638371      -0.00000030       0.00004925       0.00067398
Be       2.35941768       5.67594099      20.98689079      -0.00558261      -0.00000003       0.00000539       0.00052044
B        2.35941768       5.67594099      17.84344482      -0.09989245      -0.00000021      -0.00350926      -0.05435840
12
Lattice="3.145899772644043 0.0 0.0 0.0 5.448899745941162 0.0 0.0 0.0 29.286890029907227" Properties=species:S:1:pos:R:3:energies:R:1:forces:R:3 original_dataset_index=4 energy=-0.3310873310002176 pbc="F F F"
X       -0.13107203      -1.36222875      11.57172203       0.02056695      -0.00176604      -0.01159824      -0.00098326
H       -0.13107203       0.45407414      13.14344501       0.33382081      -0.03894136      -0.14968714      -0.17371311
He      -0.13107203       0.45407414       9.99999905      -0.00612582       0.00001470       0.00005831       0.00006069
X        1.44186342       1.36222553      11.57172203       0.02056580      -0.00170228      -0.01161013      -0.00096053
H        1.44186342       3.17852831      13.14344501       0.33388871      -0.03888919      -0.14967143      -0.17370155
He       1.44186342       3.17852831       9.99999905      -0.00612581       0.00001556       0.00005968       0.00004434
Li       1.70403636       2.27037096      17.71516800      -0.06015784       0.00009797       0.00820200      -0.00076822
Be       1.70403636       4.08667374      19.28689003      -0.00694175       0.00038927       0.00151773      -0.00033081
B        1.70403636       4.08667374      16.14344406      -0.44673779       0.04014006       0.15150384       0.17574267
Li       3.27697182       4.99482536      17.71516800      -0.06015793       0.00009846       0.00820255      -0.00076417
Be       3.27697182       6.81112814      19.28689003      -0.00694178       0.00038966       0.00151829      -0.00033110
B        3.27697182       6.81112814      16.14344406      -0.44674090       0.04015319       0.15150451       0.17570498
12
Lattice="3.145899772644043 0.0 0.0 0.0 5.448899745941162 0.0 0.0 0.0 29.986888885498047" Properties=species:S:1:pos:R:3:energies:R:1:forces:R:3 original_dataset_index=5 energy=-0.32021510744392606 pbc="F F F"
X       -0.13107203      -0.68111622      11.57172203       0.00295943      -0.00077066       0.00093487      -0.00129566
H       -0.13107203       1.13518655      13.14344501       0.17561664      -0.00525666       0.00992204       0.03903516
He      -0.13107203       1.13518655       9.99999905      -0.00558523       0.00018375      -0.00032782       0.00031099
X        1.44186342       2.04333806      11.57172203       0.00295934      -0.00073121       0.00094285      -0.00128968
H        1.44186342       3.85964084      13.14344501       0.17562731      -0.00522855       0.00993522       0.03904604
He       1.44186342       3.85964084       9.99999905      -0.00558523       0.00018419      -0.00032590       0.00029991
Li       1.70403636       1.58925855      18.41516876      -0.02302507      -0.00095937       0.00157042      -0.00193216
Be       1.70403636       3.40556145      19.98689079      -0.00558952      -0.00003924       0.00005749      -0.00007402
B        1.70403636       3.40556145      16.84344482      -0.30449128       0.00680567      -0.01217393      -0.03604612
Li       3.27697182       4.31371260      18.41516876      -0.02302472      -0.00096359       0.00157082      -0.00193428
Be       3.27697182       6.13001585      19.98689079      -0.00558952      -0.00003948       0.00005752      -0.00007526
B        3.27697182       6.13001585      16.84344482      -0.30448726       0.00681517      -0.01216356      -0.03604496
12
Lattice="3.145899772644043 0.0 0.0 0.0 5.448899745941162 0.0 0.0 0.0 29.386890411376953" Properties=species:S:1:pos:R:3:energies:R:1:forces:R:3 original_dataset_index=6 energy=-0.4240559320740124 pbc="F F F"
X        0.13108650       0.45407131      11.57172203       0.01741909      -0.00466253       0.00259865       0.00132302
H        0.13108650       2.27037406      13.14344501       0.28909660      -0.05450356      -0.00143156      -0.00147239
He       0.13108650       2.27037406       9.99999905      -0.00591286       0.00001431      -0.00006995      -0.00016756
X        1.70402193       3.17852569      11.57172203       0.01741956      -0.00462160       0.00259893       0.00131624
H        1.70402193       4.99482822      13.14344501       0.28910018      -0.05447874      -0.00141647      -0.00148691
He       1.70402193       4.99482822       9.99999905      -0.00591282       0.00001556      -0.00006669      -0.00016453
Li       1.44187784       0.45407131      17.81516838      -0.05375668       0.00235882      -0.00252311      -0.00213652
Be       1.44187784       2.27037406      19.38689041      -0.00642316       0.00065127       0.00004292      -0.00235481
B        1.44187784       2.27037406      16.24344444      -0.45245235       0.05612062       0.00139029       0.00483090
Li       3.01481318       3.17852569      17.81516838      -0.05375699       0.00235812      -0.00252782      -0.00214333
Be       3.01481318       4.99482822      19.38689041      -0.00642323       0.00065082       0.00004335      -0.00235407
B        3.01481318       4.99482822      16.24344444      -0.45245326       0.05609691       0.00136142       0.00480983
12
Lattice="3.145899772644043 0.0 0.0 0.0 5.448899745941162 0.0 0.0 0.0 29.286890029907227" Properties=species:S:1:pos:R:3:energies:R:1:forces:R:3 original_dataset_index=7 energy=-0.4028252964568319 pbc="F F F"
X        0.39324471      -1.81630349      11.57172203       0.02065417      -0.00769628       0.00495349      -0.00052388
H        0.39324471      -0.00000063      13.14344501       0.31193601      -0.07569748       0.07244560      -0.07279595
He       0.39324471      -0.00000063       9.99999905      -0.00612569      -0.00013600       0.00008817      -0.00047085
X        1.96618009       0.90815079      11.57172203       0.02065504      -0.00764960       0.00495040      -0.00052644
H        1.96618009       2.72445369      13.14344501       0.31193686      -0.07566680       0.07248671      -0.07281292
He       1.96618009       2.72445369       9.99999905      -0.00612571      -0.00013321       0.00008742      -0.00045610
Li       1.17971969       2.72444606      17.71516800      -0.05979542       0.00632082      -0.00248212      -0.00408158
Be       1.17971969       4.54074907      19.28689003      -0.00694983       0.00087040      -0.00079938      -0.00114768
B        1.17971969       4.54074907      16.14344406      -0.46113183       0.07630369      -0.07421654       0.07901253
Li       2.75265503       5.44890022      17.71516800      -0.05979710       0.00631417      -0.00248220      -0.00407870
Be       2.75265503       7.26520300      19.28689003      -0.00694966       0.00087017      -0.00079930      -0.00114692
B        2.75265503       7.26520300      16.14344406      -0.46113212       0.07630006      -0.07423226       0.07902841
12
Lattice="3.145899772644043 0.0 0.0 0.0 5.448899745941162 0.0 0.0 0.0 28.586889266967773" Properties=species:S:1:pos:R:3:energies:R:1:forces:R:3 original_dataset_index=8 energy=-0.003662189871778609 pbc="F F F"
X        0.78648216      -0.68111622      11.57172203       0.06715127      -0.00003113       0.00141180      -0.01471797
H        0.78648216       1.13518655      13.14344501       0.47746834      -0.00003385       0.14385020      -0.85659138
He       0.78648216       1.13518655       9.99999905      -0.01072370      -0.00000110       0.00063956      -0.00166615
X        2.35941768       2.04333806      11.57172203       0.06715065       0.00003356       0.00141292      -0.01473229
H        2.35941768       3.85964084      13.14344501       0.47747957       0.00002906       0.14385557      -0.85655467
He       2.35941768       3.85964084       9.99999905      -0.01072359       0.00000256       0.00064380      -0.00168019
Li       0.78648216       1.58925855      17.01516724      -0.12092337       0.00003432      -0.00415256       0.01449277
Be       0.78648216       3.40556145      18.58689117      -0.01803134      -0.00000306      -0.00044240      -0.00024471
B        0.78648216       3.40556145      15.44344521      -0.39677014       0.00002114      -0.14130282       0.85874740
Li       2.35941768       4.31371260      17.01516724      -0.12092643      -0.00004195      -0.00416129       0.01448302
Be       2.35941768       6.13001585      18.58689117      -0.01803135       0.00000157      -0.00044320      -0.00025492
B        2.35941768       6.13001585      15.44344521      -0.39678207      -0.00001119      -0.14131163       0.85871864
12
Lattice="3.145899772644043 0.0 0.0 0.0 5.448899745941162 0.0 0.0 0.0 29.286890029907227" Properties=species:S:1:pos:R:3:energies:R:1:forces:R:3 original_dataset_index=9 energy=-0.44429057495593105 pbc="F F F"
X       -0.65538841      -0.22704116      11.57172203       0.02032142      -0.00118807      -0.00711774      -0.00180573
H       -0.65538841       1.58926165      13.14344501       0.29911655      -0.00328672      -0.07313952      -0.02061376
He      -0.65538841       1.58926165       9.99999905      -0.00613026      -0.00008568      -0.00027798      -0.00119464
X        0.91754699       2.49741316      11.57172203       0.02032078      -0.00114314      -0.00711393      -0.00182073
H        0.91754699       4.31371593      13.14344501       0.29908648      -0.00323175      -0.07310593      -0.02062692
He       0.91754699       4.31371593       9.99999905      -0.00613024      -0.00008510      -0.00027423      -0.00120448
Li       2.22835279       1.13518381      17.71516800      -0.05925299       0.00174752       0.00559072      -0.00719990
Be       2.22835279       2.95148659      19.28689003      -0.00696677       0.00009689       0.00092753      -0.00138249
B        2.22835279       2.95148659      16.14344406      -0.46922697       0.00266002       0.07399607       0.03218762
Li       3.80128813       3.85963798      17.71516800      -0.05925211       0.00174416       0.00559663      -0.00719391
Be       3.80128813       5.67594099      19.28689003      -0.00696673       0.00009740       0.00092693      -0.00137987
B        3.80128813       5.67594099      16.14344406      -0.46920973       0.00267444       0.07399146       0.03223481
12
Lattice="3.145899772644043 0.0 0.0 0.0 5.448899745941162 0.0 0.0 0.0 30.986888885498047" Properties=species:S:1:pos:R:3:energies:R:1:forces:R:3 original_dataset_index=10 energy=-0.1842177100438769 pbc="F F F"
X        0.13108650      -0.68111622      11.57172203      -0.00519358       0.00007242       0.00009671      -0.00113598
H        0.13108650       1.13518655      13.14344501       0.03186136      -0.00259488      -0.00445991       0.06631768
He       0.13108650       1.13518655       9.99999905      -0.00558261       0.00002273       0.00003863       0.00017588
X        1.70402193       2.04333806      11.57172203      -0.00519363       0.00007771       0.00009808      -0.00113412
H        1.70402193       3.85964084      13.14344501       0.03185884      -0.00259516      -0.00445936       0.06631778
He       1.70402193       3.85964084       9.99999905      -0.00558261       0.00002262       0.00003933       0.00017762
Li       1.44187784       1.58925855      19.41516685      -0.00632186       0.00004734       0.00004525      -0.00137258
Be       1.44187784       3.40556145      20.98689079      -0.00558261      -0.00000381      -0.00000719       0.00047338
B        1.44187784       3.40556145      17.84344482      -0.10128802       0.00245425       0.00428485      -0.06446261
Li       3.01481318       4.31371260      19.41516685      -0.00632183       0.00004761       0.00004515      -0.00137296
Be       3.01481318       6.13001585      20.98689079      -0.00558261      -0.00000379      -0.00000705       0.00047342
B        3.01481318       6.13001585      17.84344482      -0.10128856       0.00245296       0.00428551      -0.06445748
12
Lattice="3.145899772644043 0.0 0.0 0.0 5.448899745941162 0.0 0.0 0.0 29.6868896484375" Properties=species:S:1:pos:R:3:energies:R:1:forces:R:3 original_dataset_index=11 energy=-0.40667004572310006 pbc="F F F"
X       -0.52430952      -1.36222875      11.57172203       0.00884263      -0.00136126      -0.00133266       0.00655453
H       -0.52430952       0.45407414      13.14344501       0.23007964      -0.02763933      -0.00989165       0.08055964
He      -0.52430952       0.45407414       9.99999905      -0.00561853       0.00035131       0.00013990       0.00291549
X        1.04862595       1.36222553      11.57172203       0.00884213      -0.00133246      -0.00133821       0.00653580
H        1.04862595       3.17852831      13.14344501       0.23009796      -0.02760564      -0.00984706       0.08054880
He       1.04862595       3.17852831       9.99999905      -0.00561854       0.00035306       0.00014343       0.00291383
Li       2.09727383       2.27037096      18.11516762      -0.03632137      -0.00043204       0.00029424      -0.00372039
Be       2.09727383       4.08667374      19.68689156      -0.00567667       0.00014718       0.00007009      -0.00372163
B        2.09727383       4.08667374      16.54344559      -0.39464864       0.02890045       0.01069885      -0.08256536
Li       3.67020917       4.99482536      18.11516762      -0.03632197      -0.00043606       0.00029415      -0.00371761
Be       3.67020917       6.81112814      19.68689156      -0.00567663       0.00014701       0.00007019      -0.00372238
B        3.67020917       6.81112814      16.54344559      -0.39465005       0.02890777       0.01069869      -0.08258073
12
Lattice="3.145899772644043 0.0 0.0 0.0 5.448899745941162 0.0 0.0 0.0 28.386890411376953" Properties=species:S:1:pos:R:3:energies:R:1:forces:R:3 original_dataset_index=12 energy=0.579200901666643 pbc="F F F"
X        0.78648216      -0.90815365      11.57172203       0.08149674      -0.00003495      -0.00531464      -0.01904027
H        0.78648216       0.90814924      13.14344501       0.69279350      -0.00004838       0.01031013      -1.55618871
He       0.78648216       0.90814924       9.99999905      -0.01367676      -0.00000468       0.00125474       0.00541118
X        2.35941768       1.81630063      11.57172203       0.08149544       0.00001474      -0.00529505      -0.01903128
H        2.35941768       3.63260341      13.14344501       0.69276640      -0.00001404       0.01037870      -1.55627507
He       2.35941768       3.63260341       9.99999905      -0.01367698       0.00000362       0.00125521       0.00540818
Li       0.78648216       1.81629622      16.81516838      -0.13734643       0.00000362       0.00314344       0.00701345
Be       0.78648216       3.63259912      18.38689041      -0.02469761      -0.00000081      -0.00168104      -0.00517131
B        0.78648216       3.63259912      15.24344540      -0.30895238       0.00006065      -0.00778223       1.56804027
Li       2.35941768       4.54075050      16.81516838      -0.13735352      -0.00000611       0.00315543       0.00701975
Be       2.35941768       6.35705328      18.38689041      -0.02469787       0.00000091      -0.00167913      -0.00517445
B        2.35941768       6.35705328      15.24344540      -0.30894962       0.00002519      -0.00774554       1.56798839
12
Lattice="3.145899772644043 0.0 0.0 0.0 5.448899745941162 0.0 0.0 0.0 29.086889266967773" Properties=species:S:1:pos:R:3:energies:R:1:forces:R:3 original_dataset_index=13 energy=-0.40924643996203947 pbc="F F F"
X        0.78648216      -0.22704116      11.57172203       0.02866774      -0.00003393      -0.00930138      -0.00987956
H        0.78648216       1.58926165      13.14344501       0.32868603      -0.00000117      -0.13929031      -0.15711998
He       0.78648216       1.58926165       9.99999905      -0.00681176      -0.00000083      -0.00074019      -0.00269237
X        2.35941768       2.49741316      11.57172203       0.02866561       0.00002830      -0.00931783      -0.00987422
H        2.35941768       4.31371593      13.14344501       0.32870019       0.00003734      -0.13930352      -0.15706840
He       2.35941768       4.31371593       9.99999905      -0.00681175       0.00000083      -0.00073996      -0.00269472
Li       0.78648216       1.13518381      17.51516724      -0.07240156       0.00000196       0.00936681      -0.00890725
Be       0.78648216       2.95148659      19.08689117      -0.00862884      -0.00000006       0.00128959       0.00224074
B        0.78648216       2.95148659      15.94344521      -0.47414378       0.00000373       0.13869624       0.17630691
Li       2.35941768       3.85963798      17.51516724      -0.07240050      -0.00000353       0.00936904      -0.00890749
Be       2.35941768       5.67594099      19.08689117      -0.00862884       0.00000009       0.00128836       0.00224388
B        2.35941768       5.67594099      15.94344521      -0.47413897      -0.00003274       0.13868309       0.17635243
12
Lattice="3.145899772644043 0.0 0.0 0.0 5.448899745941162 0.0 0.0 0.0 33.48688888549805" Properties=species:S:1:pos:R:3:energies:R:1:forces:R:3 original_dataset_index=14 energy=-0.06699126751663764 pbc="F F F"
X       -0.65538841      -2.04334116      11.57172203      -0.00558261      -0.00000000      -0.00000000      -0.00000000
H       -0.65538841      -0.22703832      13.14344501      -0.00558261      -0.00000000      -0.00000000      -0.00000000
He      -0.65538841      -0.22703832       9.99999905      -0.00558261      -0.00000000      -0.00000000      -0.00000000
X        0.91754699       0.68111312      11.57172203      -0.00558261      -0.00000000      -0.00000000      -0.00000000
H        0.91754699       2.49741602      13.14344501      -0.00558261      -0.00000000      -0.00000000      -0.00000000
He       0.91754699       2.49741602       9.99999905      -0.00558261      -0.00000000      -0.00000000      -0.00000000
Li       2.22835279       2.95148349      21.91516685      -0.00558261      -0.00000000      -0.00000000      -0.00000000
Be       2.22835279       4.76778650      23.48689079      -0.00558261      -0.00000000      -0.00000000      -0.00000000
B        2.22835279       4.76778650      20.34344482      -0.00558261      -0.00000000      -0.00000000      -0.00000000
Li       3.80128813       5.67593765      21.91516685      -0.00558261      -0.00000000      -0.00000000      -0.00000000
Be       3.80128813       7.49224043      23.48689079      -0.00558261      -0.00000000      -0.00000000      -0.00000000
B        3.80128813       7.49224043      20.34344482      -0.00558261      -0.00000000      -0.00000000      -0.00000000
12
Lattice="3.145899772644043 0.0 0.0 0.0 5.448899745941162 0.0 0.0 0.0 29.586891174316406" Properties=species:S:1:pos:R:3:energies:R:1:forces:R:3 original_dataset_index=15 energy=-0.42335612923319427 pbc="F F F"
X        0.52432394      -1.36222875      11.57172203       0.01143901       0.00170282      -0.00173769       0.00470932
H        0.52432394       0.45407414      13.14344501       0.25037667       0.03459026      -0.01379808       0.06770431
He       0.52432394       0.45407414       9.99999905      -0.00567252      -0.00025367       0.00010887       0.00186262
X        2.09725928       1.36222553      11.57172203       0.01143716       0.00173173      -0.00172086       0.00471564
H        2.09725928       3.17852831      13.14344501       0.25033117       0.03459018      -0.01377351       0.06780151
He       2.09725928       3.17852831       9.99999905      -0.00567251      -0.00025516       0.00011158       0.00187757
Li       1.04864037       2.27037096      18.01516724      -0.04189461       0.00005404       0.00066125      -0.00231116
Be       1.04864037       4.08667374      19.58689117      -0.00581645      -0.00030856       0.00014259      -0.00389171
B        1.04864037       4.08667374      16.44344521      -0.42008463      -0.03578536       0.01457146      -0.06816771
Li       2.62157583       4.99482536      18.01516724      -0.04189516       0.00005493       0.00066202      -0.00231400
Be       2.62157583       6.81112814      19.58689117      -0.00581648      -0.00030863       0.00014408      -0.00388956
B        2.62157583       6.81112814      16.44344521      -0.42008778      -0.03581258       0.01462830      -0.06809683
12
Lattice="3.145899772644043 0.0 0.0 0.0 5.448899745941162 0.0 0.0 0.0 29.786888122558594" Properties=species:S:1:pos:R:3:energies:R:1:forces:R:3 original_dataset_index=16 energy=-0.36554212810483266 pbc="F F F"
X        0.52432394      -1.81630349      11.57172203       0.00666645      -0.00231298       0.00198778       0.00366816
H        0.52432394      -0.00000063      13.14344501       0.21167137      -0.01361436       0.02598409       0.06105442
He       0.52432394      -0.00000063       9.99999905      -0.00560268       0.00030479      -0.00053570       0.00193847
X        2.09725928       0.90815079      11.57172203       0.00666683      -0.00226923       0.00197757       0.00367103
H        2.09725928       2.72445369      13.14344501       0.21167640      -0.01357630       0.02601854       0.06103515
He       2.09725928       2.72445369       9.99999905      -0.00560268       0.00030513      -0.00053342       0.00193343
Li       1.04864037       2.72444606      18.21516800      -0.03125182       0.00036086       0.00138115      -0.00336033
Be       1.04864037       4.54074907      19.78689003      -0.00563523       0.00002372      -0.00006509      -0.00200093
B        1.04864037       4.54074907      16.64344406      -0.35862558       0.01519910      -0.02876131      -0.06130254
Li       2.62157583       5.44890022      18.21516800      -0.03125205       0.00035973       0.00138130      -0.00336018
Be       2.62157583       7.26520300      19.78689003      -0.00563523       0.00002381      -0.00006478      -0.00199665
B        2.62157583       7.26520300      16.64344406      -0.35861791       0.01519571      -0.02877015      -0.06128014
12
Lattice="3.145899772644043 0.0 0.0 0.0 5.448899745941162 0.0 0.0 0.0 34.48688888549805" Properties=species:S:1:pos:R:3:energies:R:1:forces:R:3 original_dataset_index=17 energy=-0.06699126751663764 pbc="F F F"
X        0.00000724       0.22703362      11.57172203      -0.00558261      -0.00000000      -0.00000000      -0.00000000
H        0.00000724       2.04333639      13.14344501      -0.00558261      -0.00000000      -0.00000000      -0.00000000
He       0.00000724       2.04333639       9.99999905      -0.00558261      -0.00000000      -0.00000000      -0.00000000
X        1.57294261       2.95148778      11.57172203      -0.00558261      -0.00000000      -0.00000000      -0.00000000
H        1.57294261       4.76779127      13.14344501      -0.00558261      -0.00000000      -0.00000000      -0.00000000
He       1.57294261       4.76779127       9.99999905      -0.00558261      -0.00000000      -0.00000000      -0.00000000
Li       1.57295716       0.68110871      22.91516685      -0.00558261      -0.00000000      -0.00000000      -0.00000000
Be       1.57295716       2.49741149      24.48689079      -0.00558261      -0.00000000      -0.00000000      -0.00000000
B        1.57295716       2.49741149      21.34344482      -0.00558261      -0.00000000      -0.00000000      -0.00000000
Li       3.14589262       3.40556288      22.91516685      -0.00558261      -0.00000000      -0.00000000      -0.00000000