27
Lattice="9.811128616333008 0.0 0.0 -4.528778076171875 8.422697067260742 0.0 0.0 0.0 100.0" Properties=species:S:1:pos:R:3:energies:R:1:forces:R:3 original_dataset_index=0 energy=-27.063184165871984 pbc="F F F"
X        0.83472985       0.29282984      10.07725906       0.77464201      -0.43714417       2.79286268       1.89206055
H        0.87171096       2.34922671      11.64810085      -1.95309764       0.16203942      -0.94772643      -0.73798292
He       0.86545634       2.26451945       8.18193626      -1.44891451       0.10341489       0.04418983       3.09876232
X       -0.77480644       3.16883373      10.12756252       0.61365463       1.77647290       1.96052910      -3.02420050
H       -0.62070400       5.19333458      11.81220150      -1.89058624      -0.19035274      -0.77643536      -1.87306724
He      -0.51218605       5.05976200       8.40774059      -1.74996912      -0.13187761       0.10845709       2.34937280
X       -2.18696141       6.01182938      10.01462173       0.58491710       0.11731314      -0.97006898       1.19563406
H       -1.92230427       7.88123798      11.57541370      -2.01519906      -1.56172192      -0.54867911       1.11796536
He      -2.15987778       7.89304924       8.62920570      -1.86542796       0.31269369      -0.49468442      -3.16815547
X        4.02889585       0.32255852      10.04670334       0.46642560       1.39086842       1.68134533      -1.13036964
H        4.12432289       2.25078487      11.55626202      -2.01684748      -0.74819787      -0.13822977       0.25254564
He       4.18692398       2.16217756       8.42734337      -1.80002233      -0.44582033       0.36277407       1.53401855
X        2.42883730       3.27767158      10.02679825       0.65419276       1.32262316      -1.77908353      -0.49764272
H        2.79050684       5.17031860      11.55550194      -1.95833461      -0.09990102      -0.26958654       0.73835584
He       2.85467458       4.96361017       8.50356865      -1.57491904      -0.82378592       1.61137453       0.25673836
X        1.02212048       6.04715109      10.20094681       0.68311080       0.62783925      -0.34549732      -2.57353326
H        1.05539882       8.00459957      11.58765030      -1.97471912       1.38533809      -0.16572148      -0.00445125
He       1.29158020       7.83793068       8.53726864      -1.76900275      -1.71343266      -0.94499863      -1.57622963
X        7.37255144       0.37677875       9.85935688       0.78435579       0.15432954       2.10811627       5.20879672
H        7.59042501       2.22612071      11.57322693      -1.89027452      -1.73506176      -1.16513150       0.32304999
He       7.52220058       2.40506291       8.32233429      -1.80220022      -0.90341697      -0.45953933       2.02289558
X        5.79919147       3.11027217      10.10192680       0.81673710       0.91019437       1.61131289      -1.94809701
H        6.10283041       5.16892576      11.81806374      -1.77754129      -0.64056229      -0.38482870      -2.58005549
He       5.77532625       5.12753248       8.38165760      -1.66679468       1.56416914      -0.69971408       1.59008999
X        4.49017525       6.13691616      10.04595852       0.51046359      -1.12931913      -0.67418791       0.27914248
H        4.36249113       7.85818481      11.65229511      -2.01090505       0.15697289       0.70897342      -1.34499193
He       4.50332785       8.12986565       8.47154522      -1.78692793       0.57632518      -2.22582257      -1.40065152
27
Lattice="9.261323928833008 0.0 0.0 -4.267256736755371 7.4276838302612305 0.0 0.0 0.0 100.0" Properties=species:S:1:pos:R:3:energies:R:1:forces:R:3 original_dataset_index=1 energy=-21.593455523476806 pbc="F F F"
X        0.60360032       0.37843621       9.81891251       0.94258926       5.47156422      -0.75399922       5.55981256
H        0.91911787       2.02201366      11.54952526      -1.79965130       0.62033349       0.17170093      -1.55673540
He       1.03128731       1.97053099       8.50017738      -1.07134582      -2.74882531       0.56147468      -7.45242660
X       -0.51454157       2.93493199       9.88790607       0.39855520      -1.08485833      -2.24819222       3.32334772
H       -0.52815944       4.56262445      11.50951958      -1.80188737       0.83366745      -0.19145118       1.19652318
He      -0.38908303       4.44274330       8.21565628      -1.41120172       0.09689158       1.41751084       0.86017985
X       -1.94773889       5.20902634       9.90304756       0.42954623      -1.02676455       2.45365549      -1.90803804
H       -1.78727162       7.04925013      11.81041813      -1.38609029      -0.20639242       0.01964984      -2.98544452
He      -1.95886540       6.96653175       8.38280678      -1.48023962       0.80646481       0.76718891       0.59098333
X        4.09290600       0.58632421       9.93478298       0.65266950      -2.70796100      -6.49030033      -0.70336491
H        4.10207272       2.17888761      11.41976833      -1.58773738      -1.05650385       0.97480875       1.09823401
He       4.12575388       2.00502849       8.18958092      -1.64220788      -1.11174931       0.70398369      -0.84191546
X        2.47131586       2.79216981       9.73142815       0.60449788       2.22342692       0.80587898       6.08262132
H        2.59809399       4.47816944      11.43465233      -1.62179837       1.68508132       0.01738675      -0.19817097
He       2.48775744       4.50360489       8.22261143      -1.54639656       1.08918883       0.67117512       0.37435857
X        1.10853696       5.39278936      10.06683636       0.49709798      -1.27944497      -5.26691007      -4.19762845
H        1.17037940       6.91255856      11.45561218      -1.45822078       0.95900315       3.96515444       2.96080150
He       1.13867974       6.71359682       8.36565208      -1.14905373       0.69327519       4.38659897      -0.19626429
X        7.04564285       0.53554255       9.97141933       0.46231008      -0.57685471      -7.45674540      -3.43743237
H        7.07759905       1.85945809      11.53759098      -1.06447124       0.48763065       4.48812976       1.05448144
He       7.05558968       2.15078330       8.46797562      -1.40251009       1.93811290      -0.22145577      -3.86487908
X        5.54956150       2.72385907       9.82791042       0.43408932       1.05363578       3.81583054       2.17316697
H        5.77418184       4.48675108      11.30256271      -1.82325972      -0.51658197      -0.57277952       1.73955151
He       5.54778957       4.52775288       8.27774048      -1.24935220       3.51676258      -1.89815042      -2.12430838
X        4.33773470       5.34816837       9.70010567       0.67898246      -5.50542577      -0.33514523       4.75685492
H        4.25942659       6.99261093      11.46685696      -1.77221223      -0.60463331      -0.90492029      -0.37636589
He       4.42070150       6.99663115       8.24166489      -1.42615716      -3.04904404       1.11992424      -1.92794048
27
Lattice="8.913963317871094 0.0 0.0 -4.676674842834473 8.108978271484375 0.0 0.0 0.0 100.0" Properties=species:S:1:pos:R:3:energies:R:1:forces:R:3 original_dataset_index=2 energy=-25.639074382512913 pbc="F F F"
X        0.77384341       0.45631468      10.05185986       0.45657772       1.29672218      -0.65105349      -0.74433155
H        0.79559529       2.34602237      11.55108547      -1.56079532      -3.17373197      -2.62474196       2.69986281
He       0.89530420       2.10836172       8.55839252      -1.37765148      -4.35791817      -0.73895500      -3.92427352
X       -0.74814445       3.14199543      10.08836937       0.53293250      -0.82922820       0.90893548      -3.50353949
H       -0.90358615       5.06544781      11.61182404      -1.83093750      -0.77261037      -1.77939915       0.08560641
He      -0.93922776       5.04845333       8.35510254      -1.63211961       0.73271242      -1.74805464       0.99676617
X       -2.43624306       5.68495750       9.93769169       0.23328211       1.29997487       3.37068042      -0.40109275
H       -2.44883776       7.56626654      11.52970982      -1.81243555      -0.22540759      -0.57665904       1.76911954
He      -2.32393265       7.60288572       8.54413986      -1.55128150       0.06557753       0.34134250      -0.17447094
X        3.82342792       0.44048259      10.24693584       0.49654977      -3.89071716       1.69721376      -8.98344192
H        3.47948265       2.26577258      11.61064434      -1.85129424       1.54992787       0.46653068       0.51153563
He       3.80905771       2.14922333       8.35842228      -1.41227412      -2.02908307      -0.36326699       1.28787199
X        1.98769784       3.01720095       9.97900772       0.82632119       7.46081060       4.21732395       2.17894801
H        1.98765600       4.77270412      11.75634861      -1.71011168       0.48981835       1.10961444      -2.29542579
He       1.88532543       4.96774721       8.63409424      -1.56200962       0.77037166      -0.75548348      -3.65435080
X        0.48507380       5.89708853      10.07117176       0.29874202       0.95247520       1.35613562      -0.19557797
H        0.34413245       7.72039413      11.57887268      -1.19919092       4.45708150      -1.96964082       4.58846097
He       0.56971812       7.69740772       8.24365044      -1.35262655      -0.16304864      -0.69887301       2.41195867
X        6.69056320       0.38858727      10.02807045       0.41454792      -0.52185354      -0.06048326      -2.13097301
H        6.67024374       2.20652151      11.49012566      -1.88183876      -1.02515229       0.28629403       1.82260501
He       6.50618124       2.12583399       8.47489166      -1.62804196       1.65067999       1.10787985      -0.26856244
X        5.01607418       3.24278831       9.93038940       0.32676603       1.06251736      -1.73586131       1.10190861
H        5.14188147       4.92713785      11.45623779      -1.81613292      -2.01665966      -0.24980113       1.46013011
He       4.98768044       4.98143816       8.26005173      -1.86862775      -0.40528368      -0.59379964       0.65302294
X        3.54682851       5.83047342       9.93722534       0.51849687      -0.36086726      -0.74821195       1.11066848
H        3.56827736       7.52769995      11.39132023      -1.87807484      -0.81003802       0.47088382       4.64106398
He       3.63988662       7.68411255       8.46053314      -1.81784619      -1.20706859      -0.03855010      -1.04348990
27
Lattice="9.35168170928955 0.0 0.0 -5.103549480438232 8.335490226745605 0.0 0.0 0.0 100.0" Properties=species:S:1:pos:R:3:energies:R:1:forces:R:3 original_dataset_index=3 energy=-28.268573362219275 pbc="F F F"
X        0.67860574       0.50587827      10.02767754       0.42962862      -2.04174674      -3.10930396       0.29414406
H        0.48191553       2.14093852      11.52878952      -1.95444239      -0.09968444       1.84005091       0.49709639
He       0.45482931       2.06853223       8.40332985      -1.82983107       0.38950947       1.66588548      -1.24400797
X       -0.97568244       3.24671388       9.87284946       0.52411577      -0.85117191      -0.37182201       3.48571683
H       -1.21068931       5.06972980      11.67529774      -1.87781929      -0.64665437      -0.69195315      -1.51749875
He      -1.19102645       5.13815880       8.48909664      -1.77666185      -0.14132152      -0.87314669      -3.23872857
X       -2.71062779       6.05135727       9.92020988       0.57921732      -1.07017225       0.95297800       3.52452364
H       -2.86302376       7.91716719      11.67059708      -1.96942767       0.32765337      -0.53904144      -1.84451349
He      -3.14044142       7.94637918       8.38085747      -1.61639786       2.62949198      -0.75863748       0.31674325
X        3.89108324       0.38910943      10.00223732       0.69170953      -3.66870780       2.10469917       2.48382318
H        3.76146150       2.41960168      11.56919384      -1.89918503      -0.92954016      -1.05775501      -0.92257620
He       3.53607750       2.31529212       8.48666286      -1.78662603       1.40851422      -0.29685334      -0.65880543
X        1.92767429       3.11113620       9.93457508       0.69728326       1.54342300       2.26226367       1.60518289
H        2.01595592       5.09241056      11.59316921      -1.96065157      -0.81795148      -1.30024231      -0.83535688
He       1.89274204       5.27216768       8.38491917      -1.72589878       0.02719582      -1.89927314       0.36325985
X        0.27169347       5.78582668      10.02324390       0.62248860       2.38444902       4.18325157       1.82113647
H        0.27069378       7.85884285      11.68685341      -1.84590329       0.64818209      -0.65981330      -2.11715415
He       0.11628816       7.86493921       8.49842930      -1.66824000       1.69139636      -1.55092215      -1.58336863
X        6.93338919       0.46458498       9.87283325       0.56813288      -1.37227212       0.46185402       2.85315530
H        6.93543053       2.33217001      11.59029961      -1.87116812      -0.92968835      -0.14726382      -1.84985149
He       6.79729033       2.37511754       8.40148926      -1.92685443      -0.74219215      -0.13402048      -0.49416546
X        5.21956539       3.36631536      10.00203991       0.46716376       0.37973185      -3.13808338      -1.74275816
H        5.09961224       4.97066832      11.44069958      -1.90511621       0.47844059       2.32243829       2.52438835
He       5.08269119       5.14315176       8.45591927      -1.99611638      -0.03743290      -0.31815634      -1.21571135
X        3.51464820       5.95339060      10.00440693       0.47032349      -0.71529740       1.70697937      -0.77276088
H        3.22616649       7.87172365      11.57604408      -1.96543707       1.27591013      -0.35474623      -1.09570590
He       3.31161642       7.82839251       8.31314564      -1.74285956       0.87993523      -0.29936644       1.36379353
27
Lattice="10.797208786010742 0.0 0.0 -4.724135398864746 7.946281433105469 0.0 0.0 0.0 100.0" Properties=species:S:1:pos:R:3:energies:R:1:forces:R:3 original_dataset_index=4 energy=-24.09638050821087 pbc="F F F"
X        0.89635944       0.49482745      10.00132751       0.58441266       0.68880311      -1.22114218       0.32797390
H        1.01863348       2.21678567      11.75346947      -1.61416814      -0.30185785       0.30604261      -1.97526575
He       1.05528247       2.17410874       8.37143326      -1.73812035       0.06165177       0.88664206       0.58474314
X       -0.71697247       2.96667886       9.97777081       0.78583162      -0.16088701      -0.64111051       2.66491389
H       -0.60586917       4.88332272      11.58542061      -1.79002092      -0.15582283       0.09135502      -1.60910506
He      -0.53394252       4.66651249       8.48186207      -1.56842027      -0.22054312       2.08530294       0.22311598
X       -2.44063997       5.89234257       9.90943336       0.80834594       1.34797768      -3.32579569       1.20308592
H       -2.11487746       7.55680037      11.50913811      -2.01281789      -0.16405578       0.60626739       0.28711711
He      -1.92251325       7.57371092       8.41393089      -1.78374299      -0.89886526       0.85715385      -0.33448449
X        4.45161915       0.37257066      10.01326180       0.86473073       1.21938520       0.83343768       0.18193879
H        4.72418594       2.34870720      11.60035419      -1.91536468      -0.92343262      -0.70847930      -1.36216675
He       4.55180550       2.32586026       8.38360596      -1.79665423       1.16726486      -1.37598358       0.39724782
X        2.98406887       3.16847873       9.84058857       0.82029673      -1.04688888      -2.28122528       3.48027720
H        3.21960139       4.80168819      11.69343758      -1.75137363      -0.06140692       0.73427033      -2.19958874
He       3.15023470       4.70387745       8.25871849      -1.51786659      -0.17178322       2.50470971       0.22902741
X        1.36554575       5.65560055      10.09983921       0.88687445       0.21080958      -0.82107730      -1.72126328
H        1.53905356       7.37906647      11.68450832      -1.62956968      -0.19978898       1.32174486      -1.46888810
He       1.75011742       7.54186678       8.24862576      -1.52224306      -0.60079486      -0.25426209       2.12361977
X        8.11897087       0.54141957       9.89197636       0.92472635       0.28651662      -4.06504361       3.36561565
H        8.11973095       2.18748331      11.69419384      -1.78550991      -0.01390819       0.62854137      -2.07292759
He       8.16635799       2.19737554       8.52999783      -1.59569965       0.10788151       2.36273049      -1.95260891
X        6.33095980       3.08814430       9.99717426       0.61150794       1.69628439      -0.09833467      -0.29753725
H        6.66630363       4.88119555      11.57766628      -1.86955656      -0.19017570       0.63305364      -1.60545147
He       6.84745693       4.88303328       8.24653149      -1.76241731      -0.99033999      -0.05699268       1.50832287
X        4.94033766       5.64073277       9.84764862       0.82343960       0.46537500      -1.26707453       2.14067106
H        5.19438410       7.47565174      11.47969055      -1.88070471      -0.51933823       0.38568335      -0.78127602
He       5.25336790       7.42311668       8.47724724      -1.67229595      -0.63205992       1.87958607      -1.33710759
27
Lattice="9.458852767944336 0.0 0.0 -4.708427429199219 8.432708740234375 0.0 0.0 0.0 100.0" Properties=species:S:1:pos:R:3:energies:R:1:forces:R:3 original_dataset_index=5 energy=-28.682982163303322 pbc="F F F"
X        0.74791241       0.33533147       9.98592186       0.46330852      -0.37618270       0.51649769       1.50558784
H        0.96857041       2.14405036      11.57516289      -1.89700865      -0.94290980       1.07277948      -0.26035340
He       0.62332231       2.30962300       8.63421822      -1.63022092       1.07974891       0.14232274      -3.36429002
X       -0.76474065       3.35159874      10.07071972       0.72815906      -1.61210968      -1.39218059       1.35418202
H       -0.74338067       5.26246595      11.58263779      -2.10537483       0.36384795      -1.03645342      -0.23441695
He      -0.94357163       5.14242554       8.39745426      -1.82794238       1.97362148      -1.57270711      -1.35558892
X       -2.27457595       5.92007446       9.94678116       0.59956230      -3.19242991       2.82065234       2.48416032
H       -2.29434681       8.07487392      11.49853420      -1.63836220      -1.70614987      -2.78696238       2.00295554
He      -2.46772861       7.80063629       8.45688629      -1.88188191       1.00314908       0.17158213      -0.21521073
X        3.83385921       0.35000309      10.06576538       0.50430479       2.24866974       1.92542797      -2.88183056
H        3.89961147       2.37261319      11.52928162      -2.01155427       0.31518176      -0.11671764      -0.27677127
He       3.81289005       2.19514155       8.43514633      -1.80025442       0.85100385       0.33281560       0.27864659
X        2.38088870       3.31683373       9.93483734       0.55553324      -0.17221180      -1.49293888       1.34298940
H        2.38247871       5.14624023      11.40544701      -2.08150495      -0.80446190      -0.53113383       2.05246374
He       2.40849924       5.10627651       8.42321873      -2.02213830      -0.04389337      -0.24393793      -2.20052138
X        0.76684433       5.88362885       9.85292530       0.81553878       0.03020550       2.83569795       1.58144233
H        0.86438400       8.09737396      11.69363213      -1.66544816      -0.45424005      -0.60460236      -1.79297521
He       0.65789539       7.89504814       8.37001896      -1.77614653       0.82612735      -0.06843921       1.40411164
X        7.13745356       0.52237552       9.95221138       0.44760488      -1.55811776      -1.83478928      -0.17808766
H        7.10448456       2.20130301      11.63295650      -1.99629205       0.09786244       1.53661949      -1.17262864
He       6.91497755       2.24622011       8.43909454      -1.72391650       1.43093922       1.24983191      -0.19041282
X        5.53835964       3.33085632       9.99668694       0.53128471      -1.06194839      -2.56407623       1.20056863
H        5.44293690       5.15291595      11.54131699      -2.09153409       0.68542117       0.12292240      -0.04119267
He       5.60340261       4.97765493       8.42017555      -1.83654350      -0.81124263       1.30498152      -0.08204716
X        3.89215612       6.04769707       9.97453499       0.48904080       1.54142826       1.20910723      -1.92261431
H        3.74520707       7.92267179      11.55897331      -1.98327206       1.59192899      -0.52629021      -0.40766382
He       4.07950926       7.95947886       8.30636787      -1.84792350      -1.30323800      -0.47000995       1.36949759
27
Lattice="8.86329174041748 0.0 0.0 -4.973175048828125 7.855757236480713 0.0 0.0 0.0 100.0" Properties=species:S:1:pos:R:3:energies:R:1:forces:R:3 original_dataset_index=6 energy=-25.931508551067928 pbc="F F F"
X        0.93555677       0.33658174       9.88046455       0.79361935      -5.79675129       1.26307839       4.40276365
H        0.43506089       2.05114198      11.74446106      -1.79221945       0.76671781       0.07564628      -1.54430696
He       0.58891875       2.24857998       8.64468861      -1.56343400       1.23528219      -0.30527215      -3.60240141
X       -0.98770040       3.04275918      10.00354576       0.35591781       0.70240930       0.84043428       2.95901093
H       -0.84295219       4.87877655      11.52858925      -1.31943860      -3.93866952      -1.84005355       2.82725432
He      -1.00688052       4.69434834       8.35238457      -1.61669920      -0.36486950       1.03056834       1.52565493
X       -2.56630397       5.70289278      10.04293728       0.29651984       0.95969125      -1.57171484      -0.45799956
H       -2.71569657       7.46188211      11.61322880      -1.87272873       0.48664300      -0.68166102      -0.14008856
He      -2.67552638       7.37120342       8.46500683      -1.67986945       1.98761406      -0.28878241      -1.98372321
X        3.69400716       0.55735570      10.07810879       0.34083748       1.72623836      -4.54780498       0.73975097
H        3.60740852       2.17067957      11.66530991      -1.92157626      -0.72365919       0.63033012       1.16700069
He       3.60157824       2.03537083       8.55013466      -1.39802156      -2.17279915       1.79947807      -1.68046086
X        2.06850696       3.04017735      10.21014023       0.50776982      -1.16846935      -1.65170459      -5.01165053
H        1.86522830       4.74228811      11.44191265      -1.32084084       0.39496307       1.87657013       6.29308218
He       2.01337552       4.83714247       8.44752407      -1.34723018      -1.53978928      -1.04695518       1.31350100
X        0.34500805       5.75113916      10.12797928       0.18816617       2.59036767       0.28242004      -5.82599967
H        0.22010478       7.51917887      11.73936749      -1.80628794       0.02518343      -0.16043460      -1.26998128
He       0.40148851       7.37013912       8.50766087      -1.50506875      -1.97917849       0.90033820      -0.04452944
X        6.72643375       0.51513183      10.01674080       0.07130497      -0.16331553      -1.36113170       0.18990857
H        6.49877834       2.00638866      11.71332169      -1.55894695      -0.84721615       2.17394866      -1.05688048
He       6.45324993       2.23431444       8.43041706      -1.69568373      -0.35595383      -0.56451987      -0.12699756
X        4.88182020       3.03170848       9.99855042       0.34748098       4.01244085       0.64731561       2.66380186
H        4.91532087       4.75376081      11.72234726      -1.87169086      -0.71055649       0.28655521      -1.54238003
He       4.84373760       4.61523724       8.38416767      -1.55807997      -0.33138493       1.99975078       0.98991203
X        3.32471108       5.72573805      10.06711769       0.29862578       2.57766588      -0.18261745      -1.51220278
H        3.12901497       7.46228552      11.66436863      -1.69711616       1.28500399      -0.11050715      -1.03437717
He       3.09800839       7.36752272       8.25553894      -1.60681812       1.34239174       0.50672595       1.76233931
27
Lattice="9.662663459777832 0.0 0.0 -4.85795259475708 8.334839820861816 0.0 0.0 0.0 100.0" Properties=species:S:1:pos:R:3:energies:R:1:forces:R:3 original_dataset_index=7 energy=-26.235872740764616 pbc="F F F"
X        0.81956494       0.69634950      10.05811119       1.01533586      -0.33431621      -6.40751403      -1.82082274
H        0.63767397       2.24827003      11.50368690      -1.64921122       1.15971652       3.37342023       2.59409020
He       0.89686620       2.24877334       8.41759777      -1.82505255      -0.43292352       2.36347746      -0.02332802
X       -0.74714518       3.40418053      10.01025772       0.62584846      -1.16374675      -2.93978641      -1.75851790
H       -0.73758203       5.19822979      11.47351074      -1.96152553      -0.84777795      -0.91044395       2.71474035
He      -0.94248265       5.08044481       8.37311649      -1.90823794       0.65030985       0.47725871       0.77453120
X       -2.45616317       5.95259714      10.03644466       0.38552873      -0.26441564       0.62414332      -1.26978403
H       -2.36292505       7.75696421      11.68980312      -1.85372115      -0.38619483       1.21302499      -1.68186109
He      -2.41761780       7.72286081       8.45812225      -1.73531550      -0.27546879       1.66934623       0.71059731
X        3.99455476       0.58639902       9.99541473       0.70562512       0.43178825      -4.22976509       1.21131053
H        4.12334251       2.14092350      11.56096935      -1.75899065      -1.75205945       1.88974315       1.75482858
He       4.09172058       2.35452533       8.55687618      -1.87005118      -1.28195408       0.89564126      -1.61666648
X        2.35684633       3.44429231       9.99117184       0.81920546       0.63294062      -5.99902087       0.73690083
H        2.42505598       5.02598524      11.50309658      -1.89439922      -0.21540332       1.83359925       2.16971465
He       2.44040513       5.03526115       8.48841381      -1.70145728       0.12811094       2.36505040      -0.76715036
X        0.75138420       5.98787069      10.02082062       0.46905597       1.14813909       1.21033197      -2.13086784
H        0.76638550       7.73245478      11.71222305      -1.93456115      -0.63040767       0.63020155      -1.88391808
He       0.88221180       7.97584677       8.55396271      -1.59354075      -3.11810006      -1.63845521      -2.51751214
X        7.08039618       0.35899210       9.98744488       0.69845442       3.94411142       1.02639603       4.12152212
H        7.14972639       2.34458828      11.54248047      -1.88776610       0.82361264      -0.29435171       0.31000786
He       7.23577929       2.17226338       8.56152439      -1.68494440      -0.32723558       1.43713891      -0.53385138
X        5.51772499       3.19825172      10.11795998       0.77902836       2.12156101       1.79141686      -2.28722797
H        5.51361036       5.21716213      11.57222557      -1.87186112       1.70386430      -1.69197943       2.02454324
He       5.55947256       5.30135298       8.28777790      -1.58111043       0.45297402      -1.01214853       2.15528368
X        4.12703943       6.06636047      10.11962891       0.44300405      -2.97466790      -0.21323480      -5.18643034
H        3.87107658       7.76928520      11.60397434      -1.83173548       0.52981952       1.89811457      -0.11181142
He       3.88599777       7.80287743       8.32140827      -1.63347751       0.27772392       0.63839591       2.31167727
27
Lattice="9.491578102111816 0.0 0.0 -4.892338752746582 8.241594314575195 0.0 0.0 0.0 100.0" Properties=species:S:1:pos:R:3:energies:R:1:forces:R:3 original_dataset_index=8 energy=-28.343024134927827 pbc="F F F"
X        0.89837027       0.46181938       9.96041584       0.44415394      -2.53219042      -0.59354528       1.11773012
H        0.83078545       2.19841361      11.65182972      -1.99768133      -0.14209584       0.20749332      -1.56026320
He       0.77748173       2.25949097       8.33101082      -1.84865242       0.06849270       0.04334902       1.48543998
X       -0.81260723       3.10345268      10.05423069       0.48662855       0.25543223      -0.11190037      -0.25327599
H       -0.81223893       4.94013023      11.65534210      -1.99354644      -1.02902049       0.13049518      -1.56079116
He      -0.85472322       5.00622940       8.54980373      -1.81673340       0.49820480      -1.33935178      -3.14377284
X       -2.50166488       5.77478313       9.85046482       0.82348639       0.80853168       2.51124301       4.83053265
H       -2.61282349       7.79100704      11.60568714      -1.84104747       1.29405847      -1.06331993      -1.37123142
He      -2.50754213       7.69689798       8.48151207      -1.85805649       1.12305427       0.36747601      -1.40478766
X        4.01007891       0.49353549      10.03738689       0.58327724      -1.77115591      -1.86123142       2.17978405
H        3.99013042       2.14205074      11.59043407      -2.04637111      -0.05726161       1.72356345      -0.17915580
He       4.00498390       2.19477367       8.39212227      -1.95572443       0.24436307       0.29777938       0.38050518
X        2.42191100       3.06039500       9.96460724       0.45473583      -0.73243208       0.44641641       2.08063481
H        2.10932660       4.98295593      11.66899014      -1.88208588       1.85098993      -0.82886301      -1.36200573