27
Lattice="9.811128616333008 0.0 0.0 -4.528778076171875 8.422697067260742 0.0 0.0 0.0 100.0" Properties=species:S:1:pos:R:3:energies:R:1:forces:R:3 original_dataset_index=0 energy=-27.063145232265796 pbc="F F F"
X        0.83472985       0.29282984      10.07725906       0.77464226      -0.43720782       2.79307200       1.89180871
H        0.87171096       2.34922671      11.64810085      -1.95309826       0.16203524      -0.94773178      -0.73796996
He       0.86545634       2.26451945       8.18193626      -1.44888696       0.10345192       0.04399546       3.09891076
X       -0.77480644       3.16883373      10.12756252       0.61365249       1.77640283       1.96054004      -3.02415220
H       -0.62070400       5.19333458      11.81220150      -1.89058624      -0.19037492      -0.77647285      -1.87308007
He      -0.51218605       5.05976200       8.40774059      -1.74996912      -0.13189350       0.10848664       2.34936877
X       -2.18696141       6.01182938      10.01462173       0.58493635       0.11730899      -0.97014684       1.19567407
H       -1.92230427       7.88123798      11.57541370      -2.01519906      -1.56160568      -0.54868131       1.11803605
He      -2.15987778       7.89304924       8.62920570      -1.86542796       0.31267403      -0.49461549      -3.16818767
X        4.02889585       0.32255852      10.04670334       0.46642560       1.39081584       1.68134181      -1.13049619
H        4.12432289       2.25078487      11.55626202      -2.01684748      -0.74823208      -0.13826637       0.25256183
He       4.18692398       2.16217756       8.42734337      -1.80002239      -0.44588332       0.36274287       1.53396911
X        2.42883730       3.27767158      10.02679825       0.65419276       1.32262681      -1.77911057      -0.49764061
H        2.79050684       5.17031860      11.55550194      -1.95833461      -0.09992948      -0.26954493       0.73833980
He       2.85467458       4.96361017       8.50356865      -1.57492011      -0.82377234       1.61140296       0.25671848
X        1.02212048       6.04715109      10.20094681       0.68311093       0.62790573      -0.34543996      -2.57357980
H        1.05539882       8.00459957      11.58765030      -1.97470409       1.38542753      -0.16576483      -0.00437419
He       1.29158020       7.83793068       8.53726864      -1.76900275      -1.71352675      -0.94503272      -1.57617038
X        7.37255144       0.37677875       9.85935688       0.78435592       0.15430121       2.10819150       5.20894315
H        7.59042501       2.22612071      11.57322693      -1.89027452      -1.73503194      -1.16517893       0.32297313
He       7.52220058       2.40506291       8.32233429      -1.80220022      -0.90337326      -0.45956200       2.02285683
X        5.79919147       3.11027217      10.10192680       0.81672792       0.91025752       1.61136183      -1.94807261
H        6.10283041       5.16892576      11.81806374      -1.77754129      -0.64054632      -0.38479602      -2.58005649
He       5.77532625       5.12753248       8.38165760      -1.66679468       1.56415316      -0.69973540       1.59010898
X        4.49017525       6.13691616      10.04595852       0.51045315      -1.12933196      -0.67407966       0.27922679
H        4.36249113       7.85818481      11.65229511      -2.01090492       0.15697346       0.70883027      -1.34508301
He       4.50332785       8.12986565       8.47154522      -1.78692793       0.57637575      -2.22580546      -1.40063441
27
Lattice="9.261323928833008 0.0 0.0 -4.267256736755371 7.4276838302612305 0.0 0.0 0.0 100.0" Properties=species:S:1:pos:R:3:energies:R:1:forces:R:3 original_dataset_index=1 energy=-21.593134769371062 pbc="F F F"
X        0.60360032       0.37843621       9.81891251       0.94259090       5.47137100      -0.75401187       5.55949455
H        0.91911787       2.02201366      11.54952526      -1.79966130       0.62034129       0.17165116      -1.55667477
He       1.03128731       1.97053099       8.50017738      -1.07145573      -2.74859963       0.56150739      -7.45207085
X       -0.51454157       2.93493199       9.88790607       0.39857080      -1.08454787      -2.24817763       3.32319701
H       -0.52815944       4.56262445      11.50951958      -1.80188737       0.83367959      -0.19143874       1.19651299
He      -0.38908303       4.44274330       8.21565628      -1.41120326       0.09687074       1.41743662       0.86025243
X       -1.94773889       5.20902634       9.90304756       0.42954623      -1.02686021       2.45388746      -1.90805088
H       -1.78727162       7.04925013      11.81041813      -1.38609029      -0.20632516       0.01971050      -2.98544804
He      -1.95886540       6.96653175       8.38280678      -1.48023905       0.80648770       0.76721520       0.59098195
X        4.09290600       0.58632421       9.93478298       0.65266950      -2.70795697      -6.49040701      -0.70379739
H        4.10207272       2.17888761      11.41976833      -1.58748868      -1.05665203       0.97481850       1.09809714
He       4.12575388       2.00502849       8.18958092      -1.64220788      -1.11176114       0.70382796      -0.84198961
X        2.47131586       2.79216981       9.73142815       0.60451046       2.22315294       0.80587583       6.08233853
H        2.59809399       4.47816944      11.43465233      -1.62179837       1.68517051       0.01751525      -0.19808038
He       2.48775744       4.50360489       8.22261143      -1.54638825       1.08913398       0.67105347       0.37435713
X        1.10853696       5.39278936      10.06683636       0.49709899      -1.27940459      -5.26705498      -4.19754870
H        1.17037940       6.91255856      11.45561218      -1.45822078       0.95904750       3.96496927       2.96103875
He       1.13867974       6.71359682       8.36565208      -1.14895482       0.69314122       4.38697434      -0.19603267
X        7.04564285       0.53554255       9.97141933       0.46231398      -0.57677320      -7.45680729      -3.43760949
H        7.07759905       1.85945809      11.53759098      -1.06447124       0.48784541       4.48799289       1.05449465
He       7.05558968       2.15078330       8.46797562      -1.40251009       1.93796145      -0.22136567      -3.86510652
X        5.54956150       2.72385907       9.82791042       0.43412140       1.05362578       3.81581595       2.17346309
H        5.77418184       4.48675108      11.30256271      -1.82328607      -0.51671317      -0.57272662       1.73966775
He       5.54778957       4.52775288       8.27774048      -1.24935214       3.51682799      -1.89827357      -2.12417629
X        4.33773470       5.34816837       9.70010567       0.67898359      -5.50551382      -0.33511995       4.75676636
H        4.25942659       6.99261093      11.46685696      -1.77221235      -0.60463960      -0.90493632      -0.37640479
He       4.42070150       6.99663115       8.24166489      -1.42611294      -3.04890919       1.12006853      -1.92767140
27
Lattice="8.913963317871094 0.0 0.0 -4.676674842834473 8.108978271484375 0.0 0.0 0.0 100.0" Properties=species:S:1:pos:R:3:energies:R:1:forces:R:3 original_dataset_index=2 energy=-25.639069303532782 pbc="F F F"
X        0.77384341       0.45631468      10.05185986       0.45657797       1.29666595      -0.65117922      -0.74425909
H        0.79559529       2.34602237      11.55108547      -1.56081287      -3.17364064      -2.62456031       2.69981803
He       0.89530420       2.10836172       8.55839252      -1.37765164      -4.35787540      -0.73893582      -3.92447580
X       -0.74814445       3.14199543      10.08836937       0.53293426      -0.82929160       0.90892636      -3.50345747
H       -0.90358615       5.06544781      11.61182404      -1.83093750      -0.77259496      -1.77941688       0.08563720
He      -0.93922776       5.04845333       8.35510254      -1.63211968       0.73270393      -1.74818735       0.99675900
X       -2.43624306       5.68495750       9.93769169       0.23330198       1.30020872       3.37082432      -0.40101715
H       -2.44883776       7.56626654      11.52970982      -1.81243561      -0.22538819      -0.57664608       1.76913539
He      -2.32393265       7.60288572       8.54413986      -1.55125225       0.06553702       0.34148845      -0.17444010
X        3.82342792       0.44048259      10.24693584       0.49654801      -3.89071011       1.69720860      -8.98352545
H        3.47948265       2.26577258      11.61064434      -1.85129424       1.54984509       0.46656675       0.51143283
He       3.80905771       2.14922333       8.35842228      -1.41227270      -2.02903652      -0.36325935       1.28783199
X        1.98769784       3.01720095       9.97900772       0.82627389       7.46092784       4.21729980       2.17915256
H        1.98765600       4.77270412      11.75634861      -1.71011168       0.48978099       1.10951393      -2.29544038
He       1.88532543       4.96774721       8.63409424      -1.56200962       0.77049600      -0.75550178      -3.65419380
X        0.48507380       5.89708853      10.07117176       0.29874868       0.95244495       1.35622921      -0.19552998
H        0.34413245       7.72039413      11.57887268      -1.19919357       4.45710263      -1.96970875       4.58832562
He       0.56971812       7.69740772       8.24365044      -1.35260937      -0.16304440      -0.69887679       2.41193074
X        6.69056320       0.38858727      10.02807045       0.41454792      -0.52181316      -0.06064129      -2.13085904
H        6.67024374       2.20652151      11.49012566      -1.88183888      -1.02513978       0.28639454       1.82256828
He       6.50618124       2.12583399       8.47489166      -1.62804196       1.65077786       1.10793596      -0.26857386
X        5.01607418       3.24278831       9.93038940       0.32676603       1.06243396      -1.73589930       1.10196874
H        5.14188147       4.92713785      11.45623779      -1.81613292      -2.01673011      -0.24988779       1.46030107
He       4.98768044       4.98143816       8.26005173      -1.86862775      -0.40550172      -0.59382895       0.65291425
X        3.54682851       5.83047342       9.93722534       0.51849511      -0.36096721      -0.74820566       1.11031927
H        3.56827736       7.52769995      11.39132023      -1.87807471      -0.81016256       0.47101260       4.64100964
He       3.63988662       7.68411255       8.46053314      -1.81784619      -1.20702834      -0.03866445      -1.04333303
27
Lattice="9.35168170928955 0.0 0.0 -5.103549480438232 8.335490226745605 0.0 0.0 0.0 100.0" Properties=species:S:1:pos:R:3:energies:R:1:forces:R:3 original_dataset_index=3 energy=-28.268566443484733 pbc="F F F"
X        0.67860574       0.50587827      10.02767754       0.42962862      -2.04175416      -3.10926421       0.29417890
H        0.48191553       2.14093852      11.52878952      -1.95445257      -0.09976839       1.84005305       0.49696333
He       0.45482931       2.06853223       8.40332985      -1.82983069       0.38950438       1.66585554      -1.24405967
X       -0.97568244       3.24671388       9.87284946       0.52411074      -0.85100812      -0.37186119       3.48578929
H       -1.21068931       5.06972980      11.67529774      -1.87781929      -0.64667789      -0.69198805      -1.51746554
He      -1.19102645       5.13815880       8.48909664      -1.77669940      -0.14130136      -0.87317399      -3.23865863
X       -2.71062779       6.05135727       9.92020988       0.57921418      -1.07017212       0.95291555       3.52443206
H       -2.86302376       7.91716719      11.67059708      -1.96938163       0.32740034      -0.53912119      -1.84426467
He      -3.14044142       7.94637918       8.38085747      -1.61639786       2.62948242      -0.75865019       0.31673407
X        3.89108324       0.38910943      10.00223732       0.69170953      -3.66854024       2.10482384       2.48379702
H        3.76146150       2.41960168      11.56919384      -1.89917950      -0.92951727      -1.05774695      -0.92255840
He       3.53607750       2.31529212       8.48666286      -1.78662609       1.40846579      -0.29683818      -0.65880486
X        1.92767429       3.11113620       9.93457508       0.69730918       1.54338488       2.26229185       1.60519396
H        2.01595592       5.09241056      11.59316921      -1.96065157      -0.81789279      -1.30028810      -0.83533505
He       1.89274204       5.27216768       8.38491917      -1.72591482       0.02721455      -1.89929704       0.36321359
X        0.27169347       5.78582668      10.02324390       0.62252395       2.38441556       4.18291494       1.82098074
H        0.27069378       7.85884285      11.68685341      -1.84590329       0.64815246      -0.65959718      -2.11706081
He       0.11628816       7.86493921       8.49842930      -1.66826497       1.69147184      -1.55074705      -1.58359179
X        6.93338919       0.46458498       9.87283325       0.56813313      -1.37227162       0.46185229       2.85322474
H        6.93543053       2.33217001      11.59029961      -1.87116856      -0.92974338      -0.14733401      -1.84979589
He       6.79729033       2.37511754       8.40148926      -1.92684594      -0.74211938      -0.13401373      -0.49419533
X        5.21956539       3.36631536      10.00203991       0.46716175       0.37972691      -3.13818351      -1.74275023
H        5.09961224       4.97066832      11.44069958      -1.90511621       0.47839860       2.32257289       2.52442005
He       5.08269119       5.14315176       8.45591927      -1.99613462      -0.03736799      -0.31809404      -1.21576746
X        3.51464820       5.95339060      10.00440693       0.47032374      -0.71532469       1.70698968      -0.77262993
H        3.22616649       7.87172365      11.57604408      -1.96543707       1.27588937      -0.35471063      -1.09577182
He       3.31161642       7.82839251       8.31314564      -1.74285717       0.87995271      -0.29935927       1.36378196
27
Lattice="10.797208786010742 0.0 0.0 -4.724135398864746 7.946281433105469 0.0 0.0 0.0 100.0" Properties=species:S:1:pos:R:3:energies:R:1:forces:R:3 original_dataset_index=4 energy=-24.09635107214028 pbc="F F F"
X        0.89635944       0.49482745      10.00132751       0.58442726       0.68861920      -1.22114910       0.32783521
H        1.01863348       2.21678567      11.75346947      -1.61416814      -0.30184002       0.30605551      -1.97528865
He       1.05528247       2.17410874       8.37143326      -1.73812035       0.06162135       0.88664747       0.58472584
X       -0.71697247       2.96667886       9.97777081       0.78583162      -0.16085473      -0.64110818       2.66494962
H       -0.60586917       4.88332272      11.58542061      -1.79002092      -0.15583641       0.09136620      -1.60911060
He      -0.53394252       4.66651249       8.48186207      -1.56842027      -0.22052564       2.08527439       0.22311007
X       -2.44063997       5.89234257       9.90943336       0.80835147       1.34794082      -3.32581758       1.20296717
H       -2.11487746       7.55680037      11.50913811      -2.01281789      -0.16394344       0.60626405       0.28730319
He      -1.92251325       7.57371092       8.41393089      -1.78374299      -0.89892048       0.85706453      -0.33445600
X        4.45161915       0.37257066      10.01326180       0.86473035       1.21941111       0.83351505       0.18196608
H        4.72418594       2.34870720      11.60035419      -1.91536468      -0.92342985      -0.70848697      -1.36215517
He       4.55180550       2.32586026       8.38360596      -1.79665423       1.16725455      -1.37597541       0.39724682
X        2.98406887       3.16847873       9.84058857       0.82032491      -1.04688379      -2.28124717       3.48024877
H        3.21960139       4.80168819      11.69343758      -1.75137363      -0.06140373       0.73428825      -2.19956886
He       3.15023470       4.70387745       8.25871849      -1.51786659      -0.17177218       2.50469235       0.22907012
X        1.36554575       5.65560055      10.09983921       0.88687445       0.21079783      -0.82110227      -1.72123712
H        1.53905356       7.37906647      11.68450832      -1.62956968      -0.19981145       1.32173957      -1.46887892
He       1.75011742       7.54186678       8.24862576      -1.52224231      -0.60076712      -0.25426626       2.12356921
X        8.11897087       0.54141957       9.89197636       0.92472635       0.28652911      -4.06498448       3.36557942
H        8.11973095       2.18748331      11.69419384      -1.78550991      -0.01389072       0.62853257      -2.07292306
He       8.16635799       2.19737554       8.52999783      -1.59569965       0.10787559       2.36266381      -1.95263092
X        6.33095980       3.08814430       9.99717426       0.61150794       1.69626263      -0.09830462      -0.29753137
H        6.66630363       4.88119555      11.57766628      -1.86955593      -0.19020513       0.63308006      -1.60549889
He       6.84745693       4.88303328       8.24653149      -1.76241731      -0.99032898      -0.05698265       1.50834954
X        4.94033766       5.64073277       9.84764862       0.82344236       0.46543755      -1.26700043       2.14062200
H        5.19438410       7.47565174      11.47969055      -1.88067805      -0.51931694       0.38567879      -0.78130514
He       5.25336790       7.42311668       8.47724724      -1.67234526      -0.63201892       1.87956380      -1.33695890
27
Lattice="9.458852767944336 0.0 0.0 -4.708427429199219 8.432708740234375 0.0 0.0 0.0 100.0" Properties=species:S:1:pos:R:3:energies:R:1:forces:R:3 original_dataset_index=5 energy=-28.683059716027763 pbc="F F F"
X        0.74791241       0.33533147       9.98592186       0.46330839      -0.37599630       0.51649662       1.50544493
H        0.96857041       2.14405036      11.57516289      -1.89700852      -0.94299735       1.07269545      -0.26026024
He       0.62332231       2.30962300       8.63421822      -1.63022086       1.07970777       0.14224709      -3.36428776
X       -0.76474065       3.35159874      10.07071972       0.72815906      -1.61213081      -1.39212965       1.35424341
H       -0.74338067       5.26246595      11.58263779      -2.10537483       0.36392424      -1.03652235      -0.23455199
He      -0.94357163       5.14242554       8.39745426      -1.82794238       1.97360249      -1.57271214      -1.35558590
X       -2.27457595       5.92007446       9.94678116       0.59956230      -3.19243444       2.82064580       2.48409188
H       -2.29434681       8.07487392      11.49853420      -1.63836220      -1.70613478      -2.78695181       2.00293616
He      -2.46772861       7.80063629       8.45688629      -1.88188216       1.00302756       0.17161841      -0.21514931
X        3.83385921       0.35000309      10.06576538       0.50423862       2.24863049       1.92547112      -2.88168740
H        3.89961147       2.37261319      11.52928162      -2.01155427       0.31518629      -0.11679234      -0.27683926
He       3.81289005       2.19514155       8.43514633      -1.80025442       0.85108461       0.33291614       0.27859203
X        2.38088870       3.31683373       9.93483734       0.55553324      -0.17215596      -1.49285284       1.34294688
H        2.38247871       5.14624023      11.40544701      -2.08151740      -0.80444768      -0.53111993       2.05247153
He       2.40849924       5.10627651       8.42321873      -2.02206232      -0.04366906      -0.24393414      -2.20076543
X        0.76684433       5.88362885       9.85292530       0.81553878       0.03003780       2.83575833       1.58173505
H        0.86438400       8.09737396      11.69363213      -1.66544816      -0.45422231      -0.60463840      -1.79293747
He       0.65789539       7.89504814       8.37001896      -1.77614653       0.82615194      -0.06843196       1.40410988
X        7.13745356       0.52237552       9.95221138       0.44760488      -1.55822456      -1.83470927      -0.17806646
H        7.10448456       2.20130301      11.63295650      -1.99629205       0.09789874       1.53664918      -1.17258877
He       6.91497755       2.24622011       8.43909454      -1.72391600       1.43091783       1.24983870      -0.19041183
X        5.53835964       3.33085632       9.99668694       0.53128471      -1.06198286      -2.56403597       1.20053328
H        5.44293690       5.15291595      11.54131699      -2.09160907       0.68534267       0.12285554      -0.04123245
He       5.60340261       4.97765493       8.42017555      -1.83654394      -0.81131893       1.30502240      -0.08204898
X        3.89215612       6.04769707       9.97453499       0.48904080       1.54149808       1.20901553      -1.92265444
H        3.74520707       7.92267179      11.55897331      -1.98327187       1.59194723      -0.52631751      -0.40755403
He       4.07950926       7.95947886       8.30636787      -1.84792350      -1.30324240      -0.47008087       1.36951784
27
Lattice="8.86329174041748 0.0 0.0 -4.973175048828125 7.855757236480713 0.0 0.0 0.0 100.0" Properties=species:S:1:pos:R:3:energies:R:1:forces:R:3 original_dataset_index=6 energy=-25.931394014562485 pbc="F F F"
X        0.93555677       0.33658174       9.88046455       0.79351418      -5.79641768       1.26315198       4.40315663
H        0.43506089       2.05114198      11.74446106      -1.79221945       0.76679995       0.07564981      -1.54434005
He       0.58891875       2.24857998       8.64468861      -1.56349344       1.23526307      -0.30525696      -3.60237776
X       -0.98770040       3.04275918      10.00354576       0.35591416       0.70225671       0.84043139       2.95909244
H       -0.84295219       4.87877655      11.52858925      -1.31942967      -3.93855757      -1.84005972       2.82716249
He      -1.00688052       4.69434834       8.35238457      -1.61671084      -0.36488827       1.03071080       1.52564663
X       -2.56630397       5.70289278      10.04293728       0.29651921       0.95973409      -1.57173157      -0.45794418
H       -2.71569657       7.46188211      11.61322880      -1.87272873       0.48657897      -0.68152334      -0.14032543
He      -2.67552638       7.37120342       8.46500683      -1.67986140       1.98755506      -0.28866174      -1.98375290
X        3.69400716       0.55735570      10.07810879       0.34081622       1.72630754      -4.54763339       0.73961084
H        3.60740852       2.17067957      11.66530991      -1.92157689      -0.72367579       0.63033936       1.16706988
He       3.60157824       2.03537083       8.55013466      -1.39801936      -2.17276845       1.79939957      -1.68031394
X        2.06850696       3.04017735      10.21014023       0.50778667      -1.16848809      -1.65179554      -5.01165455
H        1.86522830       4.74228811      11.44191265      -1.32084084       0.39488809       1.87665466       6.29310935
He       2.01337552       4.83714247       8.44752407      -1.34723018      -1.53981758      -1.04697725       1.31350439
X        0.34500805       5.75113916      10.12797928       0.18816252       2.59031987       0.28230399      -5.82599414
H        0.22010478       7.51917887      11.73936749      -1.80620403       0.02517348      -0.16075922      -1.26984177
He       0.40148851       7.37013912       8.50766087      -1.50507114      -1.97923207       0.90030033      -0.04457707
X        6.72643375       0.51513183      10.01674080       0.07130497      -0.16313157      -1.36145223       0.18950829
H        6.49877834       2.00638866      11.71332169      -1.55875279      -0.84703891       2.17441511      -1.05657404
He       6.45324993       2.23431444       8.43041706      -1.69568373      -0.35575300      -0.56443074      -0.12694453
X        4.88182020       3.03170848       9.99855042       0.34746878       4.01232813       0.64722346       2.66367632
H        4.91532087       4.75376081      11.72234726      -1.87168929      -0.71057253       0.28655279      -1.54235852
He       4.84373760       4.61523724       8.38416767      -1.55807997      -0.33152041       1.99966398       0.98983869
X        3.32471108       5.72573805      10.06711769       0.29862654       2.57772953      -0.18263753      -1.51208780
H        3.12901497       7.46228552      11.66436863      -1.69710339       1.28493895      -0.11059759      -1.03445290
He       3.09800839       7.36752272       8.25553894      -1.60681214       1.34198920       0.50672026       1.76216294
27
Lattice="9.662663459777832 0.0 0.0 -4.85795259475708 8.334839820861816 0.0 0.0 0.0 100.0" Properties=species:S:1:pos:R:3:energies:R:1:forces:R:3 original_dataset_index=7 energy=-26.235781727956613 pbc="F F F"
X        0.81956494       0.69634950      10.05811119       1.01533598      -0.33425306      -6.40747327      -1.82082966
H        0.63767397       2.24827003      11.50368690      -1.64921122       1.15972306       3.37341445       2.59409926
He       0.89686620       2.24877334       8.41759777      -1.82502846      -0.43266398       2.36333732      -0.02350099
X       -0.74714518       3.40418053      10.01025772       0.62584796      -1.16396073      -2.93968401      -1.75841576
H       -0.73758203       5.19822979      11.47351074      -1.96152289      -0.84778424      -0.91047251       2.71468249
He      -0.94248265       5.08044481       8.37311649      -1.90823794       0.65025060       0.47724651       0.77450453
X       -2.45616317       5.95259714      10.03644466       0.38548458      -0.26444303       0.62412848      -1.26977963
H       -2.36292505       7.75696421      11.68980312      -1.85372159      -0.38619650       1.21302273      -1.68185417
He      -2.41761780       7.72286081       8.45812225      -1.73530864      -0.27549857       1.66931529       0.71058064
X        3.99455476       0.58639902       9.99541473       0.70562512       0.43166334      -4.22968458       1.21138475
H        4.12334251       2.14092350      11.56096935      -1.75899084      -1.75194196       1.88981536       1.75478078
He       4.09172058       2.35452533       8.55687618      -1.87002288      -1.28201220       0.89564289      -1.61675114
X        2.35684633       3.44429231       9.99117184       0.81922672       0.63284740      -5.99906565       0.73684114
H        2.42505598       5.02598524      11.50309658      -1.89439890      -0.21543975       1.83358529       2.16972899
He       2.44040513       5.03526115       8.48841381      -1.70144376       0.12819803       2.36515229      -0.76708167
X        0.75138420       5.98787069      10.02082062       0.46905597       1.14807946       1.21023511      -2.13082683
H        0.76638550       7.73245478      11.71222305      -1.93456926      -0.63035729       0.63024747      -1.88379027
He       0.88221180       7.97584677       8.55396271      -1.59354075      -3.11801804      -1.63849169      -2.51756698
X        7.08039618       0.35899210       9.98744488       0.69849077       3.94424728       1.02634571       4.12154552
H        7.14972639       2.34458828      11.54248047      -1.88778283       0.82361289      -0.29432114       0.31002161
He       7.23577929       2.17226338       8.56152439      -1.68491377      -0.32715060       1.43719992      -0.53383723
X        5.51772499       3.19825172      10.11795998       0.77902836       2.12143496       1.79135950      -2.28700129
H        5.51361036       5.21716213      11.57222557      -1.87186112       1.70395387      -1.69201264       2.02458300
He       5.55947256       5.30135298       8.28777790      -1.58111357       0.45302320      -1.01215853       2.15528645
X        4.12703943       6.06636047      10.11962891       0.44300417      -2.97475143      -0.21323508      -5.18660847
H        3.87107658       7.76928520      11.60397434      -1.83173548       0.52974637       1.89819382      -0.11184395
He       3.88599777       7.80287743       8.32140827      -1.63347745       0.27769083       0.63835736       2.31164859
27
Lattice="9.491578102111816 0.0 0.0 -4.892338752746582 8.241594314575195 0.0 0.0 0.0 100.0" Properties=species:S:1:pos:R:3:energies:R:1:forces:R:3 original_dataset_index=8 energy=-28.34296279405636 pbc="F F F"
X        0.89837027       0.46181938       9.96041584       0.44416224      -2.53212903      -0.59344678       1.11757891
H        0.83078545       2.19841361      11.65182972      -1.99768133      -0.14214949       0.20747481      -1.56022118
He       0.77748173       2.25949097       8.33101082      -1.84864475       0.06850785       0.04326286       1.48548426
X       -0.81260723       3.10345268      10.05423069       0.48662855       0.25539359      -0.11189378      -0.25328742
H       -0.81223893       4.94013023      11.65534210      -1.99352802      -1.02909471       0.13051124      -1.56076462
He      -0.85472322       5.00622940       8.54980373      -1.81673340       0.49826657      -1.33938637      -3.14371649
X       -2.50166488       5.77478313       9.85046482       0.82346488       0.80848583       2.51123647       4.83064637
H       -2.61282349       7.79100704      11.60568714      -1.84104747       1.29405432      -1.06332773      -1.37126300
He      -2.50754213       7.69689798       8.48151207      -1.85805391       1.12301654       0.36749044      -1.40475395
X        4.01007891       0.49353549      10.03738689       0.58327724      -1.77116535      -1.86125998       2.17980191
H        3.99013042       2.14205074      11.59043407      -2.04637111      -0.05714854       1.72356068      -0.17915250
He       4.00498390       2.19477367       8.39212227      -1.95571600       0.24438791       0.29775925       0.38049379
X        2.42191100       3.06039500       9.96460724       0.45473583      -0.73247523       0.44646484       2.08069305
H        2.10932660       4.98295593      11.66899014      -1.88208588       1.85103811      -0.82890861      -1.36212511