27
Lattice="9.811129067365956 0.0 0.0 -4.528777932979856 8.422697326268596 0.0 0.0 0.0 100.0" Properties=species:S:1:pos:R:3:atom_types:I:1:MACE_forces:R:3 MACE_energy=-27.05838960002085 pbc="T T T"
Mo       0.83472988       0.29282983      10.07725889        0      -0.46339685       2.86806230       2.13897339
S        0.87171097       2.34922678      11.64810110        1       0.15553847      -0.87392737      -0.80085907
S        0.86545637       2.26451945       8.18193614        2      -0.01265635       0.01990462       3.10138851
Mo      -0.77480645       3.16883379      10.12756251        0       1.79760845       1.95741731      -2.81119415
S       -0.62070402       5.19333476      11.81220107        1      -0.13304050      -0.82385686      -1.79493494
S       -0.51218607       5.05976212       8.40774026        2      -0.11880513       0.04644353       2.28797092
Mo      -2.18696150       6.01182918      10.01462170        0      -0.05131350      -0.97412332       1.05966633
S       -1.92230433       7.88123779      11.57541339        1      -1.56928705      -0.54573933       1.03760502
S       -2.15987788       7.89304941       8.62920590        2       0.37781642      -0.55771039      -3.18354297
Mo       4.02889600       0.32255853      10.04670311        0       1.36859639       1.67112482      -0.88954858
S        4.12432297       2.25078485      11.55626207        1      -0.63752642      -0.20050485       0.21694754
S        4.18692386       2.16217760       8.42734290        2      -0.44417892       0.42985291       1.57822736
Mo       2.42883723       3.27767158      10.02679829        0       1.28243481      -1.66714309      -0.66976313
S        2.79050684       5.17031883      11.55550170        1      -0.14536624      -0.36297656       0.79219155
S        2.85467457       4.96361012       8.50356850        2      -0.85147253       1.60535843       0.21701703
Mo       1.02212048       6.04715121      10.20094681        0       0.46951363      -0.30678757      -2.54007006
S        1.05539885       8.00459999      11.58764983        1       1.41560356      -0.12391974       0.02790537
S        1.29158020       7.83793049       8.53726875        2      -1.57550115      -1.00913786      -1.78957518
Mo       7.37255135       0.37677875       9.85935665        0       0.12516500       2.22307636       5.23907766
S        7.59042513       2.22612066      11.57322649        1      -1.73848433      -1.22147174       0.27303729
S        7.52220050       2.40506290       8.32233438        2      -0.95218629      -0.48179373       1.98326079
Mo       5.79919160       3.11027214      10.10192701        0       0.89600053       1.68718583      -2.01208870
S        6.10283035       5.16892565      11.81806420        1      -0.50756885      -0.47832456      -2.56885495
S        5.77532603       5.12753250       8.38165737        2       1.64938574      -0.81366731       1.58449903
Mo       4.49017506       6.13691617      10.04595844        0      -1.03806413      -0.56479124       0.31661114
S        4.36249107       7.85818458      11.65229536        1       0.19211261       0.69205616      -1.18768005
S        4.50332786       8.12986554       8.47154498        2       0.50907263      -2.19460673      -1.60626715
27
Lattice="9.261324002253584 0.0 0.0 -4.267256908602364 7.427683724371399 0.0 0.0 0.0 100.0" Properties=species:S:1:pos:R:3:atom_types:I:1:MACE_forces:R:3 MACE_energy=-21.608678387419197 pbc="T T T"
Mo       0.60360031       0.37843622       9.81891220        0       5.57320640      -0.84926166       5.66276648
S        0.91911787       2.02201376      11.54952488        1       0.43345216       0.12484403      -1.46873512
S        1.03128733       1.97053098       8.50017746        2      -2.73166100       0.49412156      -8.01321082
Mo      -0.51454157       2.93493210       9.88790629        0      -1.12830676      -2.21770584       3.44327555
S       -0.52815942       4.56262461      11.50951967        1       0.81467319      -0.08813157       1.26830061
S       -0.38908304       4.44274325       8.21565662        2       0.00076785       1.52745359       1.06427164
Mo      -1.94773886       5.20902613       9.90304763        0      -1.08720715       2.40457888      -1.93669807
S       -1.78727161       7.04925028      11.81041823        1      -0.04141050       0.04328696      -2.79027241
S       -1.95886542       6.96653184       8.38280685        2       0.99729926       0.84040509       0.51524609
Mo       4.09290600       0.58632424       9.93478340        0      -3.00216959      -6.62982939      -0.79098724
S        4.10207286       2.17888762      11.41976817        1      -1.50612498       0.92061962       1.06646964
S        4.12575407       2.00502849       8.18958136        2      -1.14047298       0.60297155      -0.85850661
Mo       2.47131578       2.79216972       9.73142788        0       2.37588770       0.78831115       6.23548622
S        2.59809404       4.47816967      11.43465205        1       1.81058299      -0.02431548      -0.12497486
S        2.48775740       4.50360497       8.22261187        2       0.99187325       0.97051820       0.56257686
Mo       1.10853695       5.39278932      10.06683599        0      -1.09562450      -5.44428005      -4.29197971
S        1.17037945       6.91255870      11.45561228        1       0.81259866       4.03582875       2.81641630
S        1.13867979       6.71359675       8.36565210        2       0.83446420       4.56476800      -0.09784017
Mo       7.04564300       0.53554254       9.97141935        0      -0.24601131      -8.00968189      -3.24592422
S        7.07759919       1.85945807      11.53759074        1       0.48260152       4.71373830       0.78588513
S        7.05558966       2.15078320       8.46797583        2       2.01108774      -0.14483402      -4.19244426
Mo       5.54956131       2.72385912       9.82791050        0       1.26396890       4.05646464       2.28389714
S        5.77418176       4.48675121      11.30256241        1      -0.58752014      -0.54432820       1.88256003
S        5.54778962       4.52775295       8.27774083        2       3.52062145      -1.83168845      -2.12402642
Mo       4.33773466       5.34816826       9.70010608        0      -5.48598945      -0.33451742       4.48700638
S        4.25942646       6.99261080      11.46685738        1      -0.73705825      -1.04587478      -0.31899057
S        4.42070130       6.99663114       8.24166520        2      -3.13352865       1.07653842      -1.81956763
27
Lattice="8.913963086677777 0.0 0.0 -4.676675077573148 8.108978736172254 0.0 0.0 0.0 100.0" Properties=species:S:1:pos:R:3:atom_types:I:1:MACE_forces:R:3 MACE_energy=-25.833577083635554 pbc="T T T"
Mo       0.77384342       0.45631468      10.05185989        0       1.36018792      -0.53137653      -0.95159493
S        0.79559527       2.34602227      11.55108508        1      -2.95664871      -2.67196377       2.88090105
S        0.89530419       2.10836175       8.55839223        2      -4.29365520      -0.87789891      -3.98528334
Mo      -0.74814446       3.14199549      10.08836970        0      -0.85017107       0.92636436      -3.48858419
S       -0.90358615       5.06544777      11.61182393        1      -0.70278953      -1.73301103      -0.04748096
S       -0.93922774       5.04845330       8.35510217        2       0.60493335      -1.73246212       0.96198607
Mo      -2.43624316       5.68495751       9.93769163        0       1.35568403       3.27514545      -0.33700995
S       -2.44883770       7.56626636      11.52970940        1      -0.32426493      -0.69942775       1.69762962
S       -2.32393257       7.60288581       8.54413969        2      -0.08165675       0.37043604      -0.02598294
Mo       3.82342786       0.44048259      10.24693573        0      -3.77812698       1.87649753      -8.73662951
S        3.47948259       2.26577253      11.61064462        1       1.38726912       0.56403259       0.54977242
S        3.80905766       2.14922335       8.35842262        2      -2.02728586      -0.42547606       1.40976668
Mo       1.98769789       3.01720090       9.97900785        0       7.75830305       4.22724717       2.15751471
S        1.98765599       4.77270431      11.75634869        1       0.53395850       1.08154585      -2.36475987
S        1.88532548       4.96774717       8.63409406        2       0.81742392      -0.81718245      -3.72551751
Mo       0.48507380       5.89708844      10.07117199        0       0.89743458       1.56914756      -0.07591927
S        0.34413246       7.72039413      11.57887258        1       4.35615845      -1.86924053       4.55304594
S        0.56971812       7.69740769       8.24365089        2       0.03703986      -0.85139360       2.21093227
Mo       6.69056308       0.38858728      10.02807031        0      -0.82385329      -0.04783910      -2.06299812
S        6.67024370       2.20652142      11.49012605        1      -1.09841795       0.27275786       1.68900767
S        6.50618132       2.12583401       8.47489157        2       1.65644028       1.17755132      -0.35661898
Mo       5.01607422       3.24278835       9.93038932        0       0.84887378      -1.65068022       1.19962180
S        5.14188144       4.92713783      11.45623784        1      -1.98447847      -0.30812706       1.41129842
S        4.98768058       4.98143813       8.26005169        2      -0.50452833      -0.63319676       0.65373977
Mo       3.54682847       5.83047350       9.93722543        0      -0.19147260      -0.80605143       1.19700677
S        3.56827725       7.52770009      11.39132012        1      -0.87705464       0.48529882       4.53680471
S        3.63988668       7.68411251       8.46053296        2      -1.11930250      -0.17069723      -0.95064833
27
Lattice="9.351681539757159 0.0 0.0 -5.103549276780913 8.335490416920987 0.0 0.0 0.0 100.0" Properties=species:S:1:pos:R:3:atom_types:I:1:MACE_forces:R:3 MACE_energy=-28.407035044541182 pbc="T T T"
Mo       0.67860571       0.50587828      10.02767719        0      -2.18574187      -3.12273990       0.53179784
S        0.48191553       2.14093844      11.52878947        1      -0.13465798       1.90807621       0.45635319
S        0.45482932       2.06853211       8.40332939        2       0.33272673       1.77794058      -1.26617503
Mo      -0.97568244       3.24671399       9.87284982        0      -0.85816587      -0.49024922       3.48905009
S       -1.21068927       5.06972986      11.67529759        1      -0.71633670      -0.68351965      -1.51529771
S       -1.19102642       5.13815891       8.48909646        2      -0.10606789      -0.79427532      -3.33252502
Mo      -2.71062791       6.05135716       9.92020954        0      -1.05052444       0.95192368       3.69242785
S       -2.86302385       7.91716726      11.67059744        1       0.42628729      -0.59191301      -1.88728680
S       -3.14044148       7.94637911       8.38085729        2       2.63669219      -0.71055507       0.18732748
Mo       3.89108319       0.38910944      10.00223688        0      -3.66058523       2.01039786       2.51477459
S        3.76146140       2.41960171      11.56919341        1      -0.96040928      -1.03201138      -0.89448355
S        3.53607746       2.31529212       8.48666315        2       1.48292485      -0.31377384      -0.69240612
Mo       1.92767427       3.11113612       9.93457466        0       1.48536274       2.26962293       1.53166468
S        2.01595602       5.09241049      11.59316925        1      -0.83532053      -1.24565014      -0.86667333
S        1.89274200       5.27216758       8.38491873        2       0.03119161      -1.81005692       0.44315053
Mo       0.27169347       5.78582645      10.02324356        0       2.46620312       4.04897267       1.79969624
S        0.27069377       7.85884269      11.68685347        1       0.71030621      -0.73687547      -2.16129617
S        0.11628816       7.86493905       8.49842944        2       1.67055712      -1.49762065      -1.39842889
Mo       6.93338906       0.46458499       9.87283298        0      -1.31971483       0.51683405       2.63630651
S        6.93543054       2.33217004      11.59029922        1      -0.94608272      -0.15721932      -1.80985647
S        6.79729030       2.37511763       8.40148897        2      -0.66025193      -0.07618174      -0.42495914
Mo       5.21956530       3.36631545      10.00203956        0       0.33116509      -3.09611389      -1.80742454
S        5.09961222       4.97066843      11.44069944        1       0.45759657       2.30133624       2.52077779
S        5.08269129       5.14315178       8.45591950        2      -0.09902641      -0.39113901      -1.18854162
Mo       3.51464808       5.95339082      10.00440740        0      -0.65845232       1.62996297      -0.80953117
S        3.22616648       7.87172370      11.57604446        1       1.29521459      -0.35411348      -1.04055491
S        3.31161653       7.82839268       8.31314551        2       0.86510988      -0.31105916       1.29211370
27
Lattice="10.797208990133319 0.0 0.0 -4.724135241080002 7.946281536751546 0.0 0.0 0.0 100.0" Properties=species:S:1:pos:R:3:atom_types:I:1:MACE_forces:R:3 MACE_energy=-23.63748848002303 pbc="T T T"
Mo       0.89635946       0.49482745      10.00132728        0       0.48601590      -1.21618348       0.30001391
S        1.01863353       2.21678577      11.75346920        1      -0.51779180       0.39733430      -1.91022593
S        1.05528250       2.17410873       8.37143352        2       0.12059178       0.86194594       0.64756968
Mo      -0.71697247       2.96667893       9.97777101        0      -0.16187282      -0.60558979       2.64072811
S       -0.60586919       4.88332281      11.58542036        1      -0.16172224       0.10462723      -1.66457708
S       -0.53394250       4.66651270       8.48186197        2      -0.14223467       2.03933671       0.49347401
Mo      -2.44063999       5.89234251       9.90943331        0       1.40235637      -3.29113829       1.22429652
S       -2.11487740       7.55680030      11.50913808        1       0.00104558       0.46423430       0.32917052
S       -1.92251324       7.57371088       8.41393133        2      -0.87549439       0.83114173      -0.36557334
Mo       4.45161908       0.37257065      10.01326144        0       1.18574513       0.71728217       0.04002105
S        4.72418599       2.34870715      11.60035398        1      -0.90418811      -0.67521454      -1.32615005
S        4.55180531       2.32586026       8.38360629        2       1.17343911      -1.50855856       0.38150506
Mo       2.98406892       3.16847877       9.84058815        0      -0.85750988      -2.53944544       3.05239317
S        3.21960139       4.80168835      11.69343780        1      -0.01246188       0.96551296      -2.27106985
S        3.15023472       4.70387752       8.25871821        2      -0.30255532       2.97336955       0.33618463
Mo       1.36554570       5.65560074      10.09983886        0       0.11150423      -0.77482752      -1.72753278
S        1.53905360       7.37906636      11.68450851        1      -0.23707432       1.22828754      -1.46583654
S        1.75011745       7.54186668       8.24862606        2      -0.53175575      -0.36290514       2.23401980
Mo       8.11897102       0.54141957       9.89197639        0       0.05098962      -4.04907228       3.19939080
S        8.11973114       2.18748323      11.69419361        1       0.10047126       0.68505422      -2.08813593
S        8.16635781       2.19737563       8.52999809        2       0.24844224       2.43997890      -1.76253429
Mo       6.33095969       3.08814429       9.99717467        0       1.56166811      -0.11015938      -0.15703907
S        6.66630372       4.88119576      11.57766581        1      -0.10074258       0.63895501      -1.59808512
S        6.84745714       4.88303345       8.24653140        2      -0.92802448      -0.04981611       1.35353289
Mo       4.94033747       5.64073299       9.84764845        0       0.34221047      -1.31103360       2.26039014
S        5.19438392       7.47565171      11.47969085        1      -0.52211493       0.34539922      -0.85537108
S        5.25336800       7.42311681       8.47724725        2      -0.52893664       1.80148435      -1.30055921
27
Lattice="9.458852624701752 0.0 0.0 -4.708427659524038 8.432708997710982 0.0 0.0 0.0 100.0" Properties=species:S:1:pos:R:3:atom_types:I:1:MACE_forces:R:3 MACE_energy=-28.787151698257844 pbc="T T T"
Mo       0.74791242       0.33533146       9.98592165        0      -0.42146330       0.58193443       1.39474151
S        0.96857043       2.14405042      11.57516307        1      -0.98304438       1.18228696      -0.23209836
S        0.62332231       2.30962291       8.63421850        2       1.19263980       0.12127814      -3.39290684
Mo      -0.76474067       3.35159876      10.07071932        0      -1.68001762      -1.34565366       1.32853256
S       -0.74338069       5.26246576      11.58263745        1       0.49192544      -0.99419705      -0.20007561
S       -0.94357163       5.14242536       8.39745396        2       2.06053891      -1.76793193      -1.34782535
Mo      -2.27457597       5.92007452       9.94678092        0      -3.28212647       2.80841034       2.44892109
S       -2.29434686       8.07487398      11.49853407        1      -1.63524774      -2.79843113       2.04877980
S       -2.46772857       7.80063631       8.45688583        2       0.98727060       0.32147376      -0.18741836
Mo       3.83385931       0.35000309      10.06576572        0       2.24183679       1.88608205      -2.92966595
S        3.89961158       2.37261319      11.52928196        1       0.28128982      -0.18665005      -0.33502400
S        3.81288998       2.19514147       8.43514654        2       0.88443177       0.28310602       0.33289317
Mo       2.38088874       3.31683369       9.93483722        0      -0.20589921      -1.49177862       1.36314535
S        2.38247877       5.14624011      11.40544666        1      -0.82924602      -0.54730134       1.91945508
S        2.40849913       5.10627646       8.42321893        2      -0.12242480      -0.34093272      -2.27391560
Mo       0.76684432       5.88362862       9.85292545        0      -0.04856604       2.73178389       1.59341756
S        0.86438400       8.09737375      11.69363236        1      -0.43713447      -0.52362544      -1.62738674
S        0.65789536       7.89504795       8.37001856        2       0.88456502       0.00353708       1.51025755
Mo       7.13745345       0.52237554       9.95221124        0      -1.52372353      -1.95999767      -0.36647707
S        7.10448462       2.20130296      11.63295666        1       0.02431593       1.52008660      -1.12231266
S        6.91497745       2.24622022       8.43909467        2       1.46621656       1.29323532      -0.09762697
Mo       5.53835969       3.33085644       9.99668677        0      -0.98490759      -2.43401900       1.13735478
S        5.44293689       5.15291617      11.54131740        1       0.73766419       0.16013337      -0.07611613
S        5.60340254       4.97765498       8.42017602        2      -0.86426266       1.30462751       0.01132856
Mo       3.89215611       6.04769714       9.97453508        0       1.52704629       1.16803511      -1.88111782
S        3.74520716       7.92267158      11.55897330        1       1.55345492      -0.47399494      -0.39835119
S        4.07950949       7.95947882       8.30636805        2      -1.31513220      -0.50149705       1.37949162
27
Lattice="8.863291723091884 0.0 0.0 -4.973175259243409 7.855757036469414 0.0 0.0 0.0 100.0" Properties=species:S:1:pos:R:3:atom_types:I:1:MACE_forces:R:3 MACE_energy=-26.07617028233304 pbc="T T T"
Mo       0.93555678       0.33658173       9.88046435        0      -6.02531424       1.07617762       4.57478994
S        0.43506088       2.05114208      11.74446069        1       0.62842546      -0.05950951      -1.46654236
S        0.58891876       2.24857988       8.64468838        2       1.31834347      -0.16995969      -3.90685478
Mo      -0.98770041       3.04275919      10.00354623        0       0.54184688       0.80233155       2.82576757
S       -0.84295222       4.87877677      11.52858902        1      -3.80277081      -1.82770204       2.77706556
S       -1.00688058       4.69434851       8.35238411        2      -0.42673059       1.02407090       1.50691984
Mo      -2.56630408       5.70289273      10.04293735        0       0.92256532      -1.49155778      -0.35115428
S       -2.71569663       7.46188210      11.61322902        1       0.54702351      -0.74903748      -0.19510242
S       -2.67552642       7.37120354       8.46500641        2       2.29964696      -0.17583051      -2.02566989
Mo       3.69400727       0.55735569      10.07810867        0       1.77267167      -4.68327914       0.62841429
S        3.60740848       2.17067953      11.66530972        1      -0.65535030       0.84164996       1.35875766
S        3.60157821       2.03537074       8.55013479        2      -2.25101307       1.80037311      -1.71969396
Mo       2.06850705       3.04017731      10.21014069        0      -0.91804360      -1.62520313      -5.16262479
S        1.86522834       4.74228828      11.44191223        1       0.55007239       1.76294146       6.55629325
S        2.01337560       4.83714234       8.44752446        2      -1.56120495      -1.11730757       1.07394916
Mo       0.34500806       5.75113917      10.12797887        0       2.51538036       0.37596758      -5.81465793
S        0.22010478       7.51917885      11.73936784        1       0.21291709      -0.24843910      -1.30911507
S        0.40148850       7.37013906       8.50766101        2      -2.13873718       0.80771726       0.02949940
Mo       6.72643363       0.51513186      10.01674101        0      -0.32924196      -1.19712364       0.19256914
S        6.49877821       2.00638867      11.71332129        1      -0.81117235       2.20524209      -1.04041461
S        6.45325014       2.23431442       8.43041742        2      -0.31525528      -0.37308215      -0.07926313
Mo       4.88182043       3.03170843       9.99854999        0       3.72249798       0.34494018       2.62714871
S        4.91532101       4.75376093      11.72234767        1      -0.61466905       0.44253287      -1.49023438
S        4.84373752       4.61523743       8.38416788        2      -0.41115620       2.01914235       0.97192524
Mo       3.32471113       5.72573786      10.06711730        0       2.41641565      -0.25411141      -1.41837681
S        3.12901497       7.46228538      11.66436844        1       1.32229263      -0.06123124      -0.91709657
S        3.09800851       7.36752261       8.25553935        2       1.49056022       0.53028749       1.77370122
27
Lattice="9.662663638967494 0.0 0.0 -4.857952457809102 8.334839727027859 0.0 0.0 0.0 100.0" Properties=species:S:1:pos:R:3:atom_types:I:1:MACE_forces:R:3 MACE_energy=-26.301231561588565 pbc="T T T"
Mo       0.81956491       0.69634952      10.05811105        0      -0.33826048      -6.71231326      -1.76543987
S        0.63767396       2.24826992      11.50368708        1       1.20181676       3.44854186       2.50101961
S        0.89686621       2.24877335       8.41759754        2      -0.49927578       2.49101424       0.08937940
Mo      -0.74714517       3.40418056      10.01025767        0      -1.23169707      -2.93691513      -1.83339853
S       -0.73758204       5.19822992      11.47351058        1      -0.87225275      -1.03252936       2.80053839
S       -0.94248268       5.08044495       8.37311644        2       0.69240647       0.55499747       0.69305860
Mo      -2.45616310       5.95259697      10.03644446        0      -0.19421203       0.72324188      -1.40721999
S       -2.36292516       7.75696413      11.68980351        1      -0.29989267       1.14727045      -1.68161007
S       -2.41761777       7.72286072       8.45812179        2      -0.39788423       1.74025429       0.68618519
Mo       3.99455481       0.58639903       9.99541485        0       0.43592439      -4.19824412       1.18638743
S        4.12334266       2.14092353      11.56096928        1      -1.76820801       1.87803021       1.72184239
S        4.09172062       2.35452541       8.55687614        2      -1.22339377       0.79689464      -1.50393119
Mo       2.35684638       3.44429221       9.99117198        0       0.69343515      -5.98132772       0.79639766
S        2.42505609       5.02598521      11.50309669        1      -0.26278688       1.90765878       1.93381573
S        2.44040523       5.03526137       8.48841424        2       0.07093648       2.40998106      -0.58283386
Mo       0.75138418       5.98787052      10.02082090        0       1.07341388       1.25961785      -2.07757192
S        0.76638547       7.73245478      11.71222282        1      -0.75073651       0.58623488      -1.94744939
S        0.88221182       7.97584665       8.55396285        2      -3.03564660      -1.70627658      -2.35461517
Mo       7.08039602       0.35899211       9.98744509        0       3.93312568       1.05585391       4.13327876
S        7.14972659       2.34458832      11.54248074        1       0.85184490      -0.33132283       0.22971596
S        7.23577938       2.17226341       8.56152485        2      -0.44351715       1.48676529      -0.49609380
Mo       5.51772493       3.19825180      10.11795965        0       2.08994240       1.86464240      -2.46235274
S        5.51361057       5.21716198      11.57222532        1       1.85831652      -1.78019102       2.04564488
S        5.55947247       5.30135277       8.28777772        2       0.55910294      -1.16421297       2.21508530
Mo       4.12703959       6.06636034      10.11962936        0      -3.11435113      -0.13897610      -5.02125557
S        3.87107660       7.76928499      11.60397393        1       0.61379540       1.94140586      -0.31103203
S        3.88599768       7.80287724       8.32140862        2       0.35805408       0.68990404       2.41245483
27
Lattice="9.491578001620752 0.0 0.0 -4.892338965155401 8.24159412827531 0.0 0.0 0.0 100.0" Properties=species:S:1:pos:R:3:atom_types:I:1:MACE_forces:R:3 MACE_energy=-28.450838871950346 pbc="T T T"
Mo       0.89837026       0.46181937       9.96041545        0      -2.46393301      -0.53782393       1.14209570
S        0.83078548       2.19841367      11.65182983        1      -0.15082975       0.20717133      -1.52251084
S        0.77748173       2.25949102       8.33101049        2       0.07366093       0.04702231       1.50040836
Mo      -0.81260721       3.10345272      10.05423115        0       0.32176628      -0.11721621      -0.22403015
S       -0.81223894       4.94013001      11.65534172        1      -0.99090819       0.14409579      -1.43280189
S       -0.85472324       5.00622936       8.54980370        2       0.43442028      -1.36499809      -3.34787642
Mo      -2.50166484       5.77478331       9.85046501        0       0.81555975       2.60625772       4.84160238
S       -2.61282356       7.79100709      11.60568748        1       1.18587441      -1.02532394      -1.35008498
S       -2.50754203       7.69689809       8.48151180        2       1.16469328       0.35528271      -1.32403074
Mo       4.01007876       0.49353548      10.03738645        0      -1.72865668      -2.02808058       2.31291358
S        3.99013031       2.14205078      11.59043451        1      -0.10044538       1.74676215      -0.21034714
S        4.00498368       2.19477365       8.39212201        2       0.20937253       0.32895319       0.44244258
Mo       2.42191091       3.06039512       9.96460693        0      -0.74939281       0.32479188       1.93351791
S        2.10932667       4.98295601      11.66898966        1       1.77747561      -0.84582279      -1.25162978
S        2.32068038       4.81266191       8.48139410        2      -0.07294203       1.22265106      -1.07709093
Mo       0.72865610       5.81294990      10.01083661        0      -0.58814942       0.38452999       4.38522602
S        0.67844281       7.83910946      11.63289413        1       0.29817581      -0.77305634      -0.89148852
S        0.68962104       7.75335590       8.79228884        2       0.00879749      -0.49343296      -7.64541872
Mo       7.32609441       0.40248847       9.87196818        0      -2.27709649       0.67557519       4.68650909
S        7.01386611       1.97191899      11.46152274        1       0.99867171       1.84004777       1.75835722
S        7.10279745       2.19391751       8.46124253        2       0.53244085       0.89418751      -1.60318389
Mo       5.57878223       3.10730155       9.99454811        0      -1.56651346      -0.18939087      -1.02290411
S        5.59554530       5.00272697      11.42614384        1      -1.27252228      -0.46557635       1.79055200
S        5.29659192       5.00691655       8.41150002        2       0.53870201      -1.07170710      -1.01947145
Mo       3.79771704       5.89512988       9.99676819        0       0.03423516       0.12095210       0.86669440
S        3.67298631       7.74212831      11.56802300        1       2.21060587      -0.48469857      -0.81260212
S        3.84043009       7.79334107       8.39089950        2       1.35693755      -1.50115298      -0.92484753
27
Lattice="9.50045283258205 0.0 0.0 -5.171381490359387 8.653363956670537 0.0 0.0 0.0 100.0" Properties=species:S:1:pos:R:3:atom_types:I:1:MACE_forces:R:3 MACE_energy=-28.018061185781587 pbc="T T T"
Mo       0.77741255       0.45601129       9.81550970        0      -0.96791847       0.17719137       2.76224158
S        0.76343359       2.31357878      11.55471865        1      -0.29697654       0.39446639      -2.39160511