27
Lattice="9.811129067365956 0.0 0.0 -4.528777932979856 8.422697326268596 0.0 0.0 0.0 100.0" Properties=species:S:1:pos:R:3:atom_types:I:1:MACE_forces:R:3 MACE_energy=-26.820011474909506 pbc="T T T"
Mo       0.83472988       0.29282983      10.07725889        0      -0.47092149       2.91822015       2.08641629
S        0.87171097       2.34922678      11.64810110        1       0.08419904      -0.91470125      -0.78454182
S        0.86545637       2.26451945       8.18193614        2       0.09157420       0.05691409       3.10437222
Mo      -0.77480645       3.16883379      10.12756251        0       1.91247819       1.96653084      -2.81741909
S       -0.62070402       5.19333476      11.81220107        1      -0.15243907      -0.82341992      -1.82505245
S       -0.51218607       5.05976212       8.40774026        2      -0.12321029      -0.02372168       2.29619666
Mo      -2.18696150       6.01182918      10.01462170        0      -0.05445911      -1.00233005       1.05944471
S       -1.92230433       7.88123779      11.57541339        1      -1.54694843      -0.53801150       1.10710159
S       -2.15987788       7.89304941       8.62920590        2       0.41013208      -0.52598077      -3.23709789
Mo       4.02889600       0.32255853      10.04670311        0       1.41290365       1.73460459      -0.93005988
S        4.12432297       2.25078485      11.55626207        1      -0.67664358      -0.22600219       0.23169909
S        4.18692386       2.16217760       8.42734290        2      -0.48644847       0.43962726       1.60264425
Mo       2.42883723       3.27767158      10.02679829        0       1.25994826      -1.72080292      -0.64327625
S        2.79050684       5.17031883      11.55550170        1      -0.14768083      -0.37433502       0.78979995
S        2.85467457       4.96361012       8.50356850        2      -0.80032068       1.57034354       0.22577238
Mo       1.02212048       6.04715121      10.20094681        0       0.52272843      -0.28571647      -2.56140358
S        1.05539885       8.00459999      11.58764983        1       1.39599723      -0.13201677       0.03100673
S        1.29158020       7.83793049       8.53726875        2      -1.64836083      -0.98143971      -1.77238821
Mo       7.37255135       0.37677875       9.85935665        0       0.12425429       2.15448880       5.23666534
S        7.59042513       2.22612066      11.57322649        1      -1.78048573      -1.21333015       0.33920157
S        7.52220050       2.40506290       8.32233438        2      -0.97265856      -0.46681136       1.95645318
Mo       5.79919160       3.11027214      10.10192701        0       0.87954855       1.66137640      -2.03336395
S        6.10283035       5.16892565      11.81806420        1      -0.52729525      -0.46309279      -2.62176314
S        5.77532603       5.12753250       8.38165737        2       1.62521692      -0.75473432       1.65427453
Mo       4.49017506       6.13691617      10.04595844        0      -1.08857122      -0.46602886       0.28833602
S        4.36249107       7.85818458      11.65229536        1       0.23137529       0.65841236      -1.22619133
S        4.50332786       8.12986554       8.47154498        2       0.52608742      -2.24804230      -1.55682692
27
Lattice="9.261324002253584 0.0 0.0 -4.267256908602364 7.427683724371399 0.0 0.0 0.0 100.0" Properties=species:S:1:pos:R:3:atom_types:I:1:MACE_forces:R:3 MACE_energy=-21.920186150081346 pbc="T T T"
Mo       0.60360031       0.37843622       9.81891220        0       5.51126015      -0.36105586       5.60572612
S        0.91911787       2.02201376      11.54952488        1       0.55343212       0.17545536      -1.41974663
S        1.03128733       1.97053098       8.50017746        2      -2.76515482       0.61383193      -7.68859929
Mo      -0.51454157       2.93493210       9.88790629        0      -0.93190028      -2.21020732       3.12546994
S       -0.52815942       4.56262461      11.50951967        1       0.90704409      -0.11711583       1.23246377
S       -0.38908304       4.44274325       8.21565662        2       0.28674994       1.48456819       1.10467823
Mo      -1.94773886       5.20902613       9.90304763        0      -1.01983492       2.32697261      -2.11184970
S       -1.78727161       7.04925028      11.81041823        1       0.07970788      -0.00798791      -2.74746460
S       -1.95886542       6.96653184       8.38280685        2       0.95667423       0.67831339       0.53615798
Mo       4.09290600       0.58632424       9.93478340        0      -2.75837788      -6.25215832      -0.79114065
S        4.10207286       2.17888762      11.41976817        1      -1.35969563       1.01297199       0.99042774
S        4.12575407       2.00502849       8.18958136        2      -1.20725714       0.57419097      -0.72953171
Mo       2.47131578       2.79216972       9.73142788        0       2.28610883       0.51265464       6.09888361
S        2.59809404       4.47816967      11.43465205        1       1.74055709      -0.00589073      -0.12599024
S        2.48775740       4.50360497       8.22261187        2       0.85968481       0.72085999       0.58703173
Mo       1.10853695       5.39278932      10.06683599        0      -1.29866706      -5.52370811      -4.12267037
S        1.17037945       6.91255870      11.45561228        1       0.84053484       4.21731549       2.82144983
S        1.13867979       6.71359675       8.36565210        2       0.69906424       4.51507954      -0.40039404
Mo       7.04564300       0.53554254       9.97141935        0      -0.35192711      -7.83156365      -3.29999673
S        7.07759919       1.85945807      11.53759074        1       0.52102039       4.52842250       0.78746735
S        7.05558966       2.15078320       8.46797583        2       1.85411941      -0.04430528      -3.78622588
Mo       5.54956131       2.72385912       9.82791050        0       1.04765704       3.62808552       2.05048285
S        5.77418176       4.48675121      11.30256241        1      -0.51592864      -0.56999502       1.79684974
S        5.54778962       4.52775295       8.27774083        2       3.67608689      -1.90091005      -1.91300483
Mo       4.33773466       5.34816826       9.70010608        0      -5.65215538      -0.15733165       4.60466958
S        4.25942646       6.99261080      11.46685738        1      -0.76198824      -1.07683746      -0.38946477
S        4.42070130       6.99663114       8.24166520        2      -3.19681484       1.07034508      -1.81567902
27
Lattice="8.913963086677777 0.0 0.0 -4.676675077573148 8.108978736172254 0.0 0.0 0.0 100.0" Properties=species:S:1:pos:R:3:atom_types:I:1:MACE_forces:R:3 MACE_energy=-25.847033498804077 pbc="T T T"
Mo       0.77384342       0.45631468      10.05185989        0       1.42461270      -0.55048544      -0.91093291
S        0.79559527       2.34602227      11.55108508        1      -3.10220466      -2.71602131       2.91507897
S        0.89530419       2.10836175       8.55839223        2      -4.45899719      -0.72057574      -4.03803136
Mo      -0.74814446       3.14199549      10.08836970        0      -0.81893279       0.95280093      -3.58642282
S       -0.90358615       5.06544777      11.61182393        1      -0.69361268      -1.66103907       0.05842707
S       -0.93922774       5.04845330       8.35510217        2       0.70827873      -1.74308732       0.99054332
Mo      -2.43624316       5.68495751       9.93769163        0       1.28124016       3.21226596      -0.43319159
S       -2.44883770       7.56626636      11.52970940        1      -0.29113439      -0.69254831       1.82020985
S       -2.32393257       7.60288581       8.54413969        2       0.01414625       0.39231330      -0.01139160
Mo       3.82342786       0.44048259      10.24693573        0      -3.92855966       1.94998481      -8.96980704
S        3.47948259       2.26577253      11.61064462        1       1.46039783       0.41173339       0.54376667
S        3.80905766       2.14922335       8.35842262        2      -2.06406031      -0.37970729       1.21270121
Mo       1.98769789       3.01720090       9.97900785        0       7.79989384       4.29643168       2.14511083
S        1.98765599       4.77270431      11.75634869        1       0.52437336       1.09735748      -2.27422547
S        1.88532548       4.96774717       8.63409406        2       0.71312905      -0.77229188      -3.81566766
Mo       0.48507380       5.89708844      10.07117199        0       0.88703879       1.40626483      -0.13419041
S        0.34413246       7.72039413      11.57887258        1       4.38889161      -1.99831015       4.59317724
S        0.56971812       7.69740769       8.24365089        2      -0.04375767      -0.84054707       2.49623261
Mo       6.69056308       0.38858728      10.02807031        0      -0.71120021      -0.05423330      -2.08260242
S        6.67024370       2.20652142      11.49012605        1      -1.03749037       0.23667724       1.72416891
S        6.50618132       2.12583401       8.47489157        2       1.63941153       1.08229623      -0.37331544
Mo       5.01607422       3.24278835       9.93038932        0       0.98149859      -1.56901391       1.27043495
S        5.14188144       4.92713783      11.45623784        1      -1.99837605      -0.22634511       1.43350441
S        4.98768058       4.98143813       8.26005169        2      -0.45882298      -0.64022144       0.67316597
Mo       3.54682847       5.83047350       9.93722543        0      -0.14155363      -0.79676435       1.17690397
S        3.56827725       7.52770009      11.39132012        1      -0.83554606       0.55001242       4.55813507
S        3.63988668       7.68411251       8.46053296        2      -1.23866377      -0.22694657      -0.98178236
27
Lattice="9.351681539757159 0.0 0.0 -5.103549276780913 8.335490416920987 0.0 0.0 0.0 100.0" Properties=species:S:1:pos:R:3:atom_types:I:1:MACE_forces:R:3 MACE_energy=-28.305689162456073 pbc="T T T"
Mo       0.67860571       0.50587828      10.02767719        0      -2.16830502      -3.19074103       0.53439482
S        0.48191553       2.14093844      11.52878947        1      -0.10200485       1.94230906       0.48731705
S        0.45482932       2.06853211       8.40332939        2       0.36059938       1.74061838      -1.27884444
Mo      -0.97568244       3.24671399       9.87284982        0      -0.84617595      -0.51152187       3.44038882
S       -1.21068927       5.06972986      11.67529759        1      -0.68100217      -0.69141343      -1.48685925
S       -1.19102642       5.13815891       8.48909646        2      -0.12312123      -0.78357126      -3.28630027
Mo      -2.71062791       6.05135716       9.92020954        0      -1.06341716       0.94002960       3.64433138
S       -2.86302385       7.91716726      11.67059744        1       0.38534199      -0.55637181      -1.87504249
S       -3.14044148       7.94637911       8.38085729        2       2.65006151      -0.70917857       0.21178283
Mo       3.89108319       0.38910944      10.00223688        0      -3.67446204       1.93696799       2.53380345
S        3.76146140       2.41960171      11.56919341        1      -0.95231942      -1.01126554      -0.94730221
S        3.53607746       2.31529212       8.48666315        2       1.47392329      -0.32321438      -0.72818981
Mo       1.92767427       3.11113612       9.93457466        0       1.53008902       2.25507593       1.59421949
S        2.01595602       5.09241049      11.59316925        1      -0.84248131      -1.28994445      -0.89660698
S        1.89274200       5.27216758       8.38491873        2      -0.00330997      -1.78457853       0.41938811
Mo       0.27169347       5.78582645      10.02324356        0       2.41694430       4.17142464       1.81790752
S        0.27069377       7.85884269      11.68685347        1       0.75639508      -0.71242573      -2.17628207
S        0.11628816       7.86493905       8.49842944        2       1.73911731      -1.52968887      -1.41661003
Mo       6.93338906       0.46458499       9.87283298        0      -1.39614760       0.56258557       2.66839481
S        6.93543054       2.33217004      11.59029922        1      -0.92732467      -0.19588640      -1.77389832
S        6.79729030       2.37511763       8.40148897        2      -0.69855657      -0.13469048      -0.44950109
Mo       5.21956530       3.36631545      10.00203956        0       0.24870282      -3.06593785      -1.82716217
S        5.09961222       4.97066843      11.44069944        1       0.53447582       2.32928645       2.53375487
S        5.08269129       5.14315178       8.45591950        2      -0.09335124      -0.37404113      -1.15488928
Mo       3.51464808       5.95339082      10.00440740        0      -0.66314696       1.63510917      -0.80067486
S        3.22616648       7.87172370      11.57604446        1       1.26894509      -0.37599399      -1.05571360
S        3.31161653       7.82839268       8.31314551        2       0.87053052      -0.27294148       1.26819374
27
Lattice="10.797208990133319 0.0 0.0 -4.724135241080002 7.946281536751546 0.0 0.0 0.0 100.0" Properties=species:S:1:pos:R:3:atom_types:I:1:MACE_forces:R:3 MACE_energy=-23.23896653772393 pbc="T T T"
Mo       0.89635946       0.49482745      10.00132728        0       0.48795244      -1.23136091       0.34419008
S        1.01863353       2.21678577      11.75346920        1      -0.37846420       0.33626852      -1.93509442
S        1.05528250       2.17410873       8.37143352        2       0.13293636       0.82556539       0.63825576
Mo      -0.71697247       2.96667893       9.97777101        0      -0.21555836      -0.63362710       2.65252796
S       -0.60586919       4.88332281      11.58542036        1      -0.16575905       0.09716121      -1.72934229
S       -0.53394250       4.66651270       8.48186197        2      -0.17039271       2.12779191       0.38323265
Mo      -2.44063999       5.89234251       9.90943331        0       1.30740262      -3.40664190       1.18183708
S       -2.11487740       7.55680030      11.50913808        1      -0.01257137       0.53351499       0.33741717
S       -1.92251324       7.57371088       8.41393133        2      -0.84854672       0.87529376      -0.37927764
Mo       4.45161908       0.37257065      10.01326144        0       1.27873157       0.61248142       0.12028352
S        4.72418599       2.34870715      11.60035398        1      -0.98531529      -0.70639401      -1.27859461
S        4.55180531       2.32586026       8.38360629        2       1.15542455      -1.46183672       0.36289964
Mo       2.98406892       3.16847877       9.84058815        0      -0.85574117      -2.55238847       3.26490343
S        3.21960139       4.80168835      11.69343780        1       0.01327893       0.91372989      -2.26113865
S        3.15023472       4.70387752       8.25871821        2      -0.29877793       2.95631454       0.37124689
Mo       1.36554570       5.65560074      10.09983886        0       0.08929049      -0.81286025      -1.75663829
S        1.53905360       7.37906636      11.68450851        1      -0.28263350       1.30115518      -1.48112895
S        1.75011745       7.54186668       8.24862606        2      -0.56096208      -0.28808702       2.15233291
Mo       8.11897102       0.54141957       9.89197639        0       0.18680576      -4.10338334       3.27073457
S        8.11973114       2.18748323      11.69419361        1       0.03779369       0.69417059      -2.11179029
S        8.16635781       2.19737563       8.52999809        2       0.20715653       2.40817217      -1.78474232
Mo       6.33095969       3.08814429       9.99717467        0       1.54893144      -0.06690664      -0.19664659
S        6.66630372       4.88119576      11.57766581        1      -0.11027703       0.68546543      -1.56701491
S        6.84745714       4.88303345       8.24653140        2      -0.87056329      -0.01349819       1.33544375
Mo       4.94033747       5.64073299       9.84764845        0       0.32234963      -1.30463810       2.24825236
S        5.19438392       7.47565171      11.47969085        1      -0.46387084       0.31737607      -0.83984331
S        5.25336800       7.42311681       8.47724725        2      -0.54862048       1.89716158      -1.34230551
27
Lattice="9.458852624701752 0.0 0.0 -4.708427659524038 8.432708997710982 0.0 0.0 0.0 100.0" Properties=species:S:1:pos:R:3:atom_types:I:1:MACE_forces:R:3 MACE_energy=-28.685712221891855 pbc="T T T"
Mo       0.74791242       0.33533146       9.98592165        0      -0.47105586       0.55296778       1.36548005
S        0.96857043       2.14405042      11.57516307        1      -0.91026176       1.11741195      -0.24542234
S        0.62332231       2.30962291       8.63421850        2       1.21254852       0.04179735      -3.44159526
Mo      -0.76474067       3.35159876      10.07071932        0      -1.72811534      -1.34619072       1.41311404
S       -0.74338069       5.26246576      11.58263745        1       0.50601433      -0.96791167      -0.15548181
S       -0.94357163       5.14242536       8.39745396        2       2.05180974      -1.72806703      -1.33238775
Mo      -2.27457597       5.92007452       9.94678092        0      -3.30664916       2.81549436       2.44994288
S       -2.29434686       8.07487398      11.49853407        1      -1.57302907      -2.74985267       2.02654060
S       -2.46772857       7.80063631       8.45688583        2       1.02110346       0.34006133      -0.20632326
Mo       3.83385931       0.35000309      10.06576572        0       2.14992101       1.88499035      -2.88731438
S        3.89961158       2.37261319      11.52928196        1       0.24750441      -0.16617054      -0.31572762
S        3.81288998       2.19514147       8.43514654        2       0.90859525       0.30755196       0.33431602
Mo       2.38088874       3.31683369       9.93483722        0      -0.14893677      -1.42471711       1.35583685
S        2.38247877       5.14624011      11.40544666        1      -0.81370249      -0.49329053       1.88878291
S        2.40849913       5.10627646       8.42321893        2      -0.12060423      -0.38447196      -2.25853969
Mo       0.76684432       5.88362862       9.85292545        0      -0.05179766       2.71301445       1.53985099
S        0.86438400       8.09737375      11.69363236        1      -0.39977330      -0.51194442      -1.57693488
S        0.65789536       7.89504795       8.37001856        2       0.82261781      -0.01887948       1.50709472
Mo       7.13745345       0.52237554       9.95221124        0      -1.52925570      -1.94385251      -0.27063193
S        7.10448462       2.20130296      11.63295666        1       0.00369546       1.52099479      -1.16377611
S        6.91497745       2.24622022       8.43909467        2       1.51625376       1.31769371      -0.11993583
Mo       5.53835969       3.33085644       9.99668677        0      -1.03897286      -2.48636181       1.17258288
S        5.44293689       5.15291617      11.54131740        1       0.69478985       0.14783423      -0.11156679
S        5.60340254       4.97765498       8.42017602        2      -0.83520399       1.28536199      -0.03586193
Mo       3.89215611       6.04769714       9.97453508        0       1.57213466       1.18947495      -1.84984342
S        3.74520716       7.92267158      11.55897330        1       1.48700484      -0.50657028      -0.41815020
S        4.07950949       7.95947882       8.30636805        2      -1.26663490      -0.50636847       1.33595124
27
Lattice="8.863291723091884 0.0 0.0 -4.973175259243409 7.855757036469414 0.0 0.0 0.0 100.0" Properties=species:S:1:pos:R:3:atom_types:I:1:MACE_forces:R:3 MACE_energy=-26.252962264111552 pbc="T T T"
Mo       0.93555678       0.33658173       9.88046435        0      -5.98844111       1.05193056       4.64043594
S        0.43506088       2.05114208      11.74446069        1       0.71202075       0.02410662      -1.49638134
S        0.58891876       2.24857988       8.64468838        2       1.38682419      -0.18298786      -3.75594626
Mo      -0.98770041       3.04275919      10.00354623        0       0.60932989       0.81033343       2.90065917
S       -0.84295222       4.87877677      11.52858902        1      -3.83013788      -1.85270879       2.73162641
S       -1.00688058       4.69434851       8.35238411        2      -0.45076731       1.04662004       1.49665741
Mo      -2.56630408       5.70289273      10.04293735        0       0.90277613      -1.57083593      -0.37496534
S       -2.71569663       7.46188210      11.61322902        1       0.55996454      -0.68313533      -0.19580830
S       -2.67552642       7.37120354       8.46500641        2       2.13512169      -0.23863903      -2.08545415
Mo       3.69400727       0.55735569      10.07810867        0       1.68411863      -4.67716444       0.66814096
S        3.60740848       2.17067953      11.66530972        1      -0.73948244       0.82715558       1.21756600
S        3.60157821       2.03537074       8.55013479        2      -2.21900710       1.80860787      -1.68834186
Mo       2.06850705       3.04017731      10.21014069        0      -0.93956523      -1.57602692      -5.10406577
S        1.86522834       4.74228828      11.44191223        1       0.48936403       1.74819368       6.39155369
S        2.01337560       4.83714234       8.44752446        2      -1.55798759      -1.05951568       1.12949889
Mo       0.34500806       5.75113917      10.12797887        0       2.49805635       0.42249308      -5.78360630
S        0.22010478       7.51917885      11.73936784        1       0.13785067      -0.22249759      -1.25082188
S        0.40148850       7.37013906       8.50766101        2      -2.02185626       0.82499279       0.03335212
Mo       6.72643363       0.51513186      10.01674101        0      -0.12716952      -1.23097970       0.19428613
S        6.49877821       2.00638867      11.71332129        1      -0.78382951       2.18569051      -1.05545206
S        6.45325014       2.23431442       8.43041742        2      -0.29064958      -0.47609430      -0.06980821
Mo       4.88182043       3.03170843       9.99854999        0       3.68911741       0.52098421       2.60108860
S        4.91532101       4.75376093      11.72234767        1      -0.59872846       0.41926087      -1.55016152
S        4.84373752       4.61523743       8.38416788        2      -0.32063479       1.99965437       0.96535026
Mo       3.32471113       5.72573786      10.06711730        0       2.30769161      -0.33531801      -1.26407834
S        3.12901497       7.46228538      11.66436844        1       1.30629852      -0.09526719      -1.02830096
S        3.09800851       7.36752261       8.25553935        2       1.44972236       0.51114716       1.73297672
27
Lattice="9.662663638967494 0.0 0.0 -4.857952457809102 8.334839727027859 0.0 0.0 0.0 100.0" Properties=species:S:1:pos:R:3:atom_types:I:1:MACE_forces:R:3 MACE_energy=-26.14568579237389 pbc="T T T"
Mo       0.81956491       0.69634952      10.05811105        0      -0.37305554      -6.73485159      -1.78085845
S        0.63767396       2.24826992      11.50368708        1       1.18514568       3.46195122       2.56322579
S        0.89686621       2.24877335       8.41759754        2      -0.47179115       2.45105125       0.05442711
Mo      -0.74714517       3.40418056      10.01025767        0      -1.27075390      -2.94442764      -1.79269770
S       -0.73758204       5.19822992      11.47351058        1      -0.88047124      -1.02364210       2.80061484
S       -0.94248268       5.08044495       8.37311644        2       0.67411036       0.55533493       0.66849516
Mo      -2.45616310       5.95259697      10.03644446        0      -0.20904477       0.76783221      -1.34195783
S       -2.36292516       7.75696413      11.68980351        1      -0.29583940       1.18316737      -1.72294735
S       -2.41761777       7.72286072       8.45812179        2      -0.34928107       1.70760876       0.70875835
Mo       3.99455481       0.58639903       9.99541485        0       0.41055645      -4.15527981       1.19385058
S        4.12334266       2.14092353      11.56096928        1      -1.74237326       1.93866058       1.73164218
S        4.09172062       2.35452541       8.55687614        2      -1.22555406       0.83501182      -1.50618187
Mo       2.35684638       3.44429221       9.99117198        0       0.68615607      -5.95208038       0.74528846
S        2.42505609       5.02598521      11.50309669        1      -0.29222547       1.85335495       1.96395922
S        2.44040523       5.03526137       8.48841424        2       0.13639860       2.38838286      -0.56547811
Mo       0.75138418       5.98787052      10.02082090        0       1.09239839       1.22108986      -2.07560193
S        0.76638547       7.73245478      11.71222282        1      -0.70856911       0.55617456      -1.90319036
S        0.88221182       7.97584665       8.55396285        2      -3.00428917      -1.71619451      -2.44958937
Mo       7.08039602       0.35899211       9.98744509        0       3.94632547       1.06488955       4.13986403
S        7.14972659       2.34458832      11.54248074        1       0.90989577      -0.33779756       0.25293960
S        7.23577938       2.17226341       8.56152485        2      -0.46537733       1.50760761      -0.51562681
Mo       5.51772493       3.19825180      10.11795965        0       2.14775280       1.84281572      -2.51193862
S        5.51361057       5.21716198      11.57222532        1       1.77512862      -1.78508653       2.05911760
S        5.55947247       5.30135277       8.28777772        2       0.53551249      -1.13563008       2.18712190
Mo       4.12703959       6.06636034      10.11962936        0      -3.07948252      -0.15863625      -5.08967181
S        3.87107660       7.76928499      11.60397393        1       0.58719197       1.91319400      -0.26625646
S        3.88599768       7.80287724       8.32140862        2       0.28153531       0.69549921       2.45269183
27
Lattice="9.491578001620752 0.0 0.0 -4.892338965155401 8.24159412827531 0.0 0.0 0.0 100.0" Properties=species:S:1:pos:R:3:atom_types:I:1:MACE_forces:R:3 MACE_energy=-28.390843785675386 pbc="T T T"
Mo       0.89837026       0.46181937       9.96041545        0      -2.49121628      -0.55217535       1.13945465
S        0.83078548       2.19841367      11.65182983        1      -0.13232379       0.20312370      -1.56168677
S        0.77748173       2.25949102       8.33101049        2       0.07226687       0.03916946       1.50735744
Mo      -0.81260721       3.10345272      10.05423115        0       0.30556123      -0.03115797      -0.21736735
S       -0.81223894       4.94013001      11.65534172        1      -0.98249045       0.14918760      -1.47416846
S       -0.85472324       5.00622936       8.54980370        2       0.43022276      -1.39416527      -3.32262997
Mo      -2.50166484       5.77478331       9.85046501        0       0.74530543       2.54471171       4.77674735
S       -2.61282356       7.79100709      11.60568748        1       1.23101249      -1.03213278      -1.36269447
S       -2.50754203       7.69689809       8.48151180        2       1.20773656       0.31357692      -1.36489313
Mo       4.01007876       0.49353548      10.03738645        0      -1.89621775      -1.88630286       2.28738103
S        3.99013031       2.14205078      11.59043451        1      -0.05470952       1.75508256      -0.26226382
S        4.00498368       2.19477365       8.39212201        2       0.21683864       0.36514031       0.44092026
Mo       2.42191091       3.06039512       9.96460693        0      -0.72446447       0.27800200       1.97303178
S        2.10932667       4.98295601      11.66898966        1       1.79281215      -0.82825096      -1.27212707
S        2.32068038       4.81266191       8.48139410        2      -0.06297625       1.20800140      -1.08355116
Mo       0.72865610       5.81294990      10.01083661        0      -0.56276561       0.41957232       4.27916825
S        0.67844281       7.83910946      11.63289413        1       0.32739559      -0.80211985      -0.97667335
S        0.68962104       7.75335590       8.79228884        2      -0.11210470      -0.56031579      -7.29784311
Mo       7.32609441       0.40248847       9.87196818        0      -2.16551585       0.56529251       4.65002047
S        7.01386611       1.97191899      11.46152274        1       0.94628626       1.80434372       1.74185392
S        7.10279745       2.19391751       8.46124253        2       0.53811839       0.93477186      -1.61871009
Mo       5.57878223       3.10730155       9.99454811        0      -1.58817847      -0.15440115      -1.01403052
S        5.59554530       5.00272697      11.42614384        1      -1.27665825      -0.50999190       1.75774814
S        5.29659192       5.00691655       8.41150002        2       0.54077795      -1.02353097      -0.96954504
Mo       3.79771704       5.89512988       9.99676819        0       0.12536692       0.10073624       0.87700895
S        3.67298631       7.74212831      11.56802300        1       2.16005897      -0.42171308      -0.78210813
S        3.84043009       7.79334107       8.39089950        2       1.40986118      -1.48445439      -0.85039984
27
Lattice="9.50045283258205 0.0 0.0 -5.171381490359387 8.653363956670537 0.0 0.0 0.0 100.0" Properties=species:S:1:pos:R:3:atom_types:I:1:MACE_forces:R:3 MACE_energy=-27.807217586310728 pbc="T T T"
Mo       0.77741255       0.45601129       9.81550970        0      -1.01053476       0.20887834       2.73332327
S        0.76343359       2.31357878      11.55471865        1      -0.30452517       0.42158383      -2.36120356