27
Lattice="9.811129067365956 0.0 0.0 -4.528777932979856 8.422697326268596 0.0 0.0 0.0 100.0" Properties=species:S:1:pos:R:3:atom_types:I:1:MACE_forces:R:3 MACE_energy=-26.87335266390059 pbc="T T T"
Mo       0.83472988       0.29282983      10.07725889        0      -0.46857058       2.88609594       2.13352849
S        0.87171097       2.34922678      11.64810110        1       0.14755247      -0.92241901      -0.76525838
S        0.86545637       2.26451945       8.18193614        2       0.01296004       0.04527686       3.09282391
Mo      -0.77480645       3.16883379      10.12756251        0       1.82303075       1.97922212      -2.89089532
S       -0.62070402       5.19333476      11.81220107        1      -0.12901554      -0.86562503      -1.80633904
S       -0.51218607       5.05976212       8.40774026        2      -0.10654706      -0.01598233       2.29557598
Mo      -2.18696150       6.01182918      10.01462170        0      -0.04387465      -0.96430177       1.04660468
S       -1.92230433       7.88123779      11.57541339        1      -1.56815731      -0.52800913       1.06038614
S       -2.15987788       7.89304941       8.62920590        2       0.37066288      -0.58126503      -3.19668170
Mo       4.02889600       0.32255853      10.04670311        0       1.38351746       1.71270273      -0.90592546
S        4.12432297       2.25078485      11.55626207        1      -0.66887862      -0.18725896       0.18826595
S        4.18692386       2.16217760       8.42734290        2      -0.43367361       0.42353186       1.59130597
Mo       2.42883723       3.27767158      10.02679829        0       1.37121736      -1.71011860      -0.63855826
S        2.79050684       5.17031883      11.55550170        1      -0.15886137      -0.35373404       0.81333442
S        2.85467457       4.96361012       8.50356850        2      -0.84379312       1.66074009       0.21638331
Mo       1.02212048       6.04715121      10.20094681        0       0.51183975      -0.22897595      -2.57461127
S        1.05539885       8.00459999      11.58764983        1       1.46075706      -0.12956447      -0.00092112
S        1.29158020       7.83793049       8.53726875        2      -1.58987917      -1.02229390      -1.79857224
Mo       7.37255135       0.37677875       9.85935665        0       0.08124398       2.18042664       5.28480641
S        7.59042513       2.22612066      11.57322649        1      -1.75242062      -1.21640458       0.28687371
S        7.52220050       2.40506290       8.32233438        2      -0.95632215      -0.44839334       2.00469305
Mo       5.79919160       3.11027214      10.10192701        0       0.88579059       1.69373165      -1.94703432
S        6.10283035       5.16892565      11.81806420        1      -0.52909939      -0.50335521      -2.59513957
S        5.77532603       5.12753250       8.38165737        2       1.62002095      -0.78272309       1.58252840
Mo       4.49017506       6.13691617      10.04595844        0      -1.11299060      -0.58424332       0.33536067
S        4.36249107       7.85818458      11.65229536        1       0.17499692       0.67886178      -1.21346079
S        4.50332786       8.12986554       8.47154498        2       0.51849357      -2.21592189      -1.59907360
27
Lattice="9.261324002253584 0.0 0.0 -4.267256908602364 7.427683724371399 0.0 0.0 0.0 100.0" Properties=species:S:1:pos:R:3:atom_types:I:1:MACE_forces:R:3 MACE_energy=-21.60840861422988 pbc="T T T"
Mo       0.60360031       0.37843622       9.81891220        0       5.09888695      -0.68680375       5.67393460
S        0.91911787       2.02201376      11.54952488        1       0.56790039       0.18593007      -1.58659820
S        1.03128733       1.97053098       8.50017746        2      -2.64105233       0.74449437      -7.65467848
Mo      -0.51454157       2.93493210       9.88790629        0      -1.11976207      -2.01695536       3.28751623
S       -0.52815942       4.56262461      11.50951967        1       0.92681563      -0.10471515       1.20403967
S       -0.38908304       4.44274325       8.21565662        2       0.24708365       1.41132355       1.01068339
Mo      -1.94773886       5.20902613       9.90304763        0      -0.92890389       2.36220057      -1.86834558
S       -1.78727161       7.04925028      11.81041823        1       0.13134995       0.08004585      -2.68522581
S       -1.95886542       6.96653184       8.38280685        2       0.93894578       0.82680356       0.58268469
Mo       4.09290600       0.58632424       9.93478340        0      -3.07691203      -6.61886834      -0.81839845
S        4.10207286       2.17888762      11.41976817        1      -1.52578162       1.00221974       1.13130509
S        4.12575407       2.00502849       8.18958136        2      -1.09780741       0.61217243      -0.73910933
Mo       2.47131578       2.79216972       9.73142788        0       2.64845674       0.55743250       5.94637914
S        2.59809404       4.47816967      11.43465205        1       1.73733453      -0.16526338      -0.08581552
S        2.48775740       4.50360497       8.22261187        2       0.85984935       0.70396041       0.59868563
Mo       1.10853695       5.39278932      10.06683599        0      -1.29215105      -5.50673382      -4.40944302
S        1.17037945       6.91255870      11.45561228        1       0.80597035       4.06566891       2.69418125
S        1.13867979       6.71359675       8.36565210        2       0.78536645       4.68955589       0.04631269
Mo       7.04564300       0.53554254       9.97141935        0      -0.54835877      -7.83825491      -3.47578017
S        7.07759919       1.85945807      11.53759074        1       0.43731660       4.48105151       0.82891661
S        7.05558966       2.15078320       8.46797583        2       1.86630170      -0.11038304      -3.86847544
Mo       5.54956131       2.72385912       9.82791050        0       1.25179061       3.84162359       2.04278435
S        5.77418176       4.48675121      11.30256241        1      -0.52033151      -0.57518841       1.95142706
S        5.54778962       4.52775295       8.27774083        2       3.62086072      -1.96622388      -2.18215687
Mo       4.33773466       5.34816826       9.70010608        0      -5.40429210      -0.31677462       4.70643886
S        4.25942646       6.99261080      11.46685738        1      -0.59394797      -0.85584710      -0.32490188
S        4.42070130       6.99663114       8.24166520        2      -3.17492866       1.19752879      -2.00636049
27
Lattice="8.913963086677777 0.0 0.0 -4.676675077573148 8.108978736172254 0.0 0.0 0.0 100.0" Properties=species:S:1:pos:R:3:atom_types:I:1:MACE_forces:R:3 MACE_energy=-25.662162161054663 pbc="T T T"
Mo       0.77384342       0.45631468      10.05185989        0       1.35215329      -0.63143842      -0.83509976
S        0.79559527       2.34602227      11.55108508        1      -3.04999944      -2.68667651       2.71001347
S        0.89530419       2.10836175       8.55839223        2      -4.42996724      -0.89530306      -4.16148201
Mo      -0.74814446       3.14199549      10.08836970        0      -0.97734363       0.91867321      -3.42614048
S       -0.90358615       5.06544777      11.61182393        1      -0.73687974      -1.76645017       0.03044129
S       -0.93922774       5.04845330       8.35510217        2       0.64884249      -1.69516249       0.95803481
Mo      -2.43624316       5.68495751       9.93769163        0       1.33734967       3.15594090      -0.41328012
S       -2.44883770       7.56626636      11.52970940        1      -0.30212696      -0.66064757       1.79593216
S       -2.32393257       7.60288581       8.54413969        2       0.00942413       0.46161654       0.01730389
Mo       3.82342786       0.44048259      10.24693573        0      -3.82507815       1.76915577      -8.85330203
S        3.47948259       2.26577253      11.61064462        1       1.36700509       0.46133287       0.57322477
S        3.80905766       2.14922335       8.35842262        2      -1.87758647      -0.34098395       1.30917918
Mo       1.98769789       3.01720090       9.97900785        0       7.83698757       4.26389186       2.28820594
S        1.98765599       4.77270431      11.75634869        1       0.56108543       1.13370393      -2.32315297
S        1.88532548       4.96774717       8.63409406        2       0.80588947      -0.75944071      -3.70848528
Mo       0.48507380       5.89708844      10.07117199        0       0.81729146       1.51859248      -0.18216506
S        0.34413246       7.72039413      11.57887258        1       4.41322577      -1.94041300       4.58694854
S        0.56971812       7.69740769       8.24365089        2       0.04493188      -0.78720115       2.34978658
Mo       6.69056308       0.38858728      10.02807031        0      -0.79252758       0.04770029      -2.11006215
S        6.67024370       2.20652142      11.49012605        1      -0.99631154       0.24020738       1.64737969
S        6.50618132       2.12583401       8.47489157        2       1.69123142       1.13707540      -0.29878913
Mo       5.01607422       3.24278835       9.93038932        0       0.89534742      -1.64146128       1.21380865
S        5.14188144       4.92713783      11.45623784        1      -1.96726655      -0.30234689       1.49903090
S        4.98768058       4.98143813       8.26005169        2      -0.47715061      -0.55970717       0.65046484
Mo       3.54682847       5.83047350       9.93722543        0      -0.17669428      -0.83539711       1.13325843
S        3.56827725       7.52770009      11.39132012        1      -0.92734895       0.53039023       4.55059469
S        3.63988668       7.68411251       8.46053296        2      -1.24448395      -0.13565140      -1.00164885
27
Lattice="9.351681539757159 0.0 0.0 -5.103549276780913 8.335490416920987 0.0 0.0 0.0 100.0" Properties=species:S:1:pos:R:3:atom_types:I:1:MACE_forces:R:3 MACE_energy=-28.226389095477405 pbc="T T T"
Mo       0.67860571       0.50587828      10.02767719        0      -2.10231662      -3.15185279       0.47125305
S        0.48191553       2.14093844      11.52878947        1      -0.11758838       1.89897960       0.49390790
S        0.45482932       2.06853211       8.40332939        2       0.33218113       1.74432567      -1.23316939
Mo      -0.97568244       3.24671399       9.87284982        0      -0.85313920      -0.45314317       3.46899445
S       -1.21068927       5.06972986      11.67529759        1      -0.76527268      -0.68685470      -1.56599217
S       -1.19102642       5.13815891       8.48909646        2      -0.13200623      -0.78125877      -3.31303731
Mo      -2.71062791       6.05135716       9.92020954        0      -0.98086716       0.95985141       3.63635101
S       -2.86302385       7.91716726      11.67059744        1       0.38691360      -0.55105632      -1.86579256
S       -3.14044148       7.94637911       8.38085729        2       2.62628482      -0.68353784       0.26345329
Mo       3.89108319       0.38910944      10.00223688        0      -3.73720565       1.93194149       2.52723768
S        3.76146140       2.41960171      11.56919341        1      -0.99723194      -1.00405373      -0.93503686
S        3.53607746       2.31529212       8.48666315        2       1.48873095      -0.30207696      -0.70869108
Mo       1.92767427       3.11113612       9.93457466        0       1.44689168       2.21982286       1.55031626
S        2.01595602       5.09241049      11.59316925        1      -0.84858401      -1.26782964      -0.91288712
S        1.89274200       5.27216758       8.38491873        2      -0.02168406      -1.83326279       0.43811145
Mo       0.27169347       5.78582645      10.02324356        0       2.53588963       4.11725975       1.84332718
S        0.27069377       7.85884269      11.68685347        1       0.72046666      -0.71199383      -2.17415773
S        0.11628816       7.86493905       8.49842944        2       1.70061278      -1.53939277      -1.40123411
Mo       6.93338906       0.46458499       9.87283298        0      -1.35497135       0.48564772       2.69178867
S        6.93543054       2.33217004      11.59029922        1      -0.90887984      -0.15840926      -1.83161499
S        6.79729030       2.37511763       8.40148897        2      -0.65140238      -0.08850183      -0.42331340
Mo       5.21956530       3.36631545      10.00203956        0       0.30800486      -3.10792968      -1.82888993
S        5.09961222       4.97066843      11.44069944        1       0.53032690       2.33953872       2.53850611
S        5.08269129       5.14315178       8.45591950        2      -0.15110986      -0.38996366      -1.19960196
Mo       3.51464808       5.95339082      10.00440740        0      -0.63291972       1.69274096      -0.75091913
S        3.22616648       7.87172370      11.57604446        1       1.26526785      -0.37627940      -1.05872964
S        3.31161653       7.82839268       8.31314551        2       0.91360821      -0.30271103       1.27982032
27
Lattice="10.797208990133319 0.0 0.0 -4.724135241080002 7.946281536751546 0.0 0.0 0.0 100.0" Properties=species:S:1:pos:R:3:atom_types:I:1:MACE_forces:R:3 MACE_energy=-23.56140348467094 pbc="T T T"
Mo       0.89635946       0.49482745      10.00132728        0       0.48929417      -1.23770205       0.29151317
S        1.01863353       2.21678577      11.75346920        1      -0.48793591       0.37439420      -1.85836815
S        1.05528250       2.17410873       8.37143352        2       0.16403344       0.88360581       0.63446034
Mo      -0.71697247       2.96667893       9.97777101        0      -0.20077242      -0.62920652       2.64323788
S       -0.60586919       4.88332281      11.58542036        1      -0.16641222       0.10533815      -1.63205850
S       -0.53394250       4.66651270       8.48186197        2      -0.12489817       2.00490751       0.40708720
Mo      -2.44063999       5.89234251       9.90943331        0       1.22528499      -3.31414602       1.18417061
S       -2.11487740       7.55680030      11.50913808        1       0.01752971       0.49125975       0.35939061
S       -1.92251324       7.57371088       8.41393133        2      -0.85209862       0.86599609      -0.33902107
Mo       4.45161908       0.37257065      10.01326144        0       1.18280426       0.61334261       0.01701431
S        4.72418599       2.34870715      11.60035398        1      -0.84224078      -0.64601331      -1.35935206
S        4.55180531       2.32586026       8.38360629        2       1.15517568      -1.47507876       0.35090227
Mo       2.98406892       3.16847877       9.84058815        0      -0.78651657      -2.51130289       3.10978321
S        3.21960139       4.80168835      11.69343780        1       0.00499588       0.91678563      -2.31188896
S        3.15023472       4.70387752       8.25871821        2      -0.34531488       2.90771934       0.32538247
Mo       1.36554570       5.65560074      10.09983886        0       0.15736558      -0.75503462      -1.75243565
S        1.53905360       7.37906636      11.68450851        1      -0.28386911       1.25103978      -1.48236709
S        1.75011745       7.54186668       8.24862606        2      -0.55420800      -0.28002530       2.21381374
Mo       8.11897102       0.54141957       9.89197639        0       0.04932933      -4.07383557       3.24041529
S        8.11973114       2.18748323      11.69419361        1       0.10501487       0.69006102      -2.15469557
S        8.16635781       2.19737563       8.52999809        2       0.22237260       2.47017973      -1.75378179
Mo       6.33095969       3.08814429       9.99717467        0       1.41001880      -0.16432026      -0.17740519
S        6.66630372       4.88119576      11.57766581        1      -0.04681468       0.71556445      -1.50304682
S        6.84745714       4.88303345       8.24653140        2      -0.86732309      -0.05320561       1.33698863
Mo       4.94033747       5.64073299       9.84764845        0       0.38261624      -1.32036355       2.29713977
S        5.19438392       7.47565171      11.47969085        1      -0.47319322       0.35292899      -0.86514045
S        5.25336800       7.42311681       8.47724725        2      -0.53423787       1.81711141      -1.22173820
27
Lattice="9.458852624701752 0.0 0.0 -4.708427659524038 8.432708997710982 0.0 0.0 0.0 100.0" Properties=species:S:1:pos:R:3:atom_types:I:1:MACE_forces:R:3 MACE_energy=-28.62158641643309 pbc="T T T"
Mo       0.74791242       0.33533146       9.98592165        0      -0.40385780       0.54138220       1.39490573
S        0.96857043       2.14405042      11.57516307        1      -0.95335321       1.14112715      -0.25624493
S        0.62332231       2.30962291       8.63421850        2       1.18164232       0.13334012      -3.44192105
Mo      -0.76474067       3.35159876      10.07071932        0      -1.73836615      -1.39087444       1.34694280
S       -0.74338069       5.26246576      11.58263745        1       0.52201262      -0.95039699      -0.21198844
S       -0.94357163       5.14242536       8.39745396        2       2.07462782      -1.72267572      -1.30464304
Mo      -2.27457597       5.92007452       9.94678092        0      -3.35573306       2.80255079       2.48732716
S       -2.29434686       8.07487398      11.49853407        1      -1.59637442      -2.75911646       2.07305811
S       -2.46772857       7.80063631       8.45688583        2       0.97319474       0.36095615      -0.23407609
Mo       3.83385931       0.35000309      10.06576572        0       2.23970701       1.89071224      -2.95760403
S        3.89961158       2.37261319      11.52928196        1       0.26678719      -0.19694024      -0.34988682
S        3.81288998       2.19514147       8.43514654        2       0.83884338       0.31043372       0.35943752
Mo       2.38088874       3.31683369       9.93483722        0      -0.12943054      -1.51349767       1.36031047
S        2.38247877       5.14624011      11.40544666        1      -0.87477800      -0.51350933       1.92519021
S        2.40849913       5.10627646       8.42321893        2      -0.13756121      -0.35160345      -2.26318837
Mo       0.76684432       5.88362862       9.85292545        0      -0.04135521       2.69879009       1.55159903
S        0.86438400       8.09737375      11.69363236        1      -0.38350917      -0.54893495      -1.60147312
S        0.65789536       7.89504795       8.37001856        2       0.86763931      -0.01540142       1.52493971
Mo       7.13745345       0.52237554       9.95221124        0      -1.54493075      -1.90381368      -0.33361891
S        7.10448462       2.20130296      11.63295666        1       0.04728587       1.54672265      -1.14700275
S        6.91497745       2.24622022       8.43909467        2       1.48822198       1.29889080      -0.08261849
Mo       5.53835969       3.33085644       9.99668677        0      -0.96790718      -2.45432714       1.15066160
S        5.44293689       5.15291617      11.54131740        1       0.71890838       0.16264808      -0.08189380
S        5.60340254       4.97765498       8.42017602        2      -0.86671670       1.27177254      -0.03585259
Mo       3.89215611       6.04769714       9.97453508        0       1.55484357       1.16989617      -1.85098816
S        3.74520716       7.92267158      11.55897330        1       1.50357477      -0.51378828      -0.38439004
S        4.07950949       7.95947882       8.30636805        2      -1.28341556      -0.49434293       1.36301828
27
Lattice="8.863291723091884 0.0 0.0 -4.973175259243409 7.855757036469414 0.0 0.0 0.0 100.0" Properties=species:S:1:pos:R:3:atom_types:I:1:MACE_forces:R:3 MACE_energy=-25.955986410070313 pbc="T T T"
Mo       0.93555678       0.33658173       9.88046435        0      -5.91991626       1.17860073       4.41769589
S        0.43506088       2.05114208      11.74446069        1       0.77779117       0.09996093      -1.54421696
S        0.58891876       2.24857988       8.64468838        2       1.20111379      -0.22914816      -3.60307629
Mo      -0.98770041       3.04275919      10.00354623        0       0.65143687       0.86162095       2.83819986
S       -0.84295222       4.87877677      11.52858902        1      -3.90293759      -1.87404457       2.74316306
S       -1.00688058       4.69434851       8.35238411        2      -0.46331164       1.02626459       1.51599196
Mo      -2.56630408       5.70289273      10.04293735        0       0.91837992      -1.64841671      -0.40440069
S       -2.71569663       7.46188210      11.61322902        1       0.63592867      -0.72263409      -0.22099738
S       -2.67552642       7.37120354       8.46500641        2       2.13316536      -0.28550599      -2.00547616
Mo       3.69400727       0.55735569      10.07810867        0       1.69769683      -4.67334754       0.65331174
S        3.60740848       2.17067953      11.66530972        1      -0.73980018       0.77013397       1.19238783
S        3.60157821       2.03537074       8.55013479        2      -2.18343010       1.81444074      -1.68514924
Mo       2.06850705       3.04017731      10.21014069        0      -0.98969525      -1.70519951      -4.97358571
S        1.86522834       4.74228828      11.44191223        1       0.49816326       1.81165544       6.38691297
S        2.01337560       4.83714234       8.44752446        2      -1.58478675      -1.03109498       1.06292454
Mo       0.34500806       5.75113917      10.12797887        0       2.53482287       0.51017686      -5.83557098
S        0.22010478       7.51917885      11.73936784        1       0.16899647      -0.21107777      -1.18225304
S        0.40148850       7.37013906       8.50766101        2      -1.99370228       0.78432490       0.03583249
Mo       6.72643363       0.51513186      10.01674101        0      -0.16530137      -1.34254925       0.17651499
S        6.49877821       2.00638867      11.71332129        1      -0.78069304       2.16232911      -1.08730809
S        6.45325014       2.23431442       8.43041742        2      -0.30635662      -0.45885773      -0.03571419
Mo       4.88182043       3.03170843       9.99854999        0       3.73350298       0.44749578       2.59530158
S        4.91532101       4.75376093      11.72234767        1      -0.62794604       0.45323185      -1.54508921
S        4.84373752       4.61523743       8.38416788        2      -0.32224794       2.05607229       1.04153281
Mo       3.32471113       5.72573786      10.06711730        0       2.40466517      -0.20955879      -1.36549244
S        3.12901497       7.46228538      11.66436844        1       1.22983510      -0.11809472      -0.97126765
S        3.09800851       7.36752261       8.25553935        2       1.39462659       0.53322167       1.79982834
27
Lattice="9.662663638967494 0.0 0.0 -4.857952457809102 8.334839727027859 0.0 0.0 0.0 100.0" Properties=species:S:1:pos:R:3:atom_types:I:1:MACE_forces:R:3 MACE_energy=-26.127183153470593 pbc="T T T"
Mo       0.81956491       0.69634952      10.05811105        0      -0.25701156      -6.74986028      -1.72149432
S        0.63767396       2.24826992      11.50368708        1       1.13135472       3.46314013       2.54997426
S        0.89686621       2.24877335       8.41759754        2      -0.45180708       2.45928594      -0.02213330
Mo      -0.74714517       3.40418056      10.01025767        0      -1.23354431      -2.86865191      -1.75701892
S       -0.73758204       5.19822992      11.47351058        1      -0.85128621      -1.05184612       2.80102659
S       -0.94248268       5.08044495       8.37311644        2       0.63590876       0.58796941       0.69648165
Mo      -2.45616310       5.95259697      10.03644446        0      -0.18823762       0.70634449      -1.41753823
S       -2.36292516       7.75696413      11.68980351        1      -0.31344913       1.17037439      -1.68345796
S       -2.41761777       7.72286072       8.45812179        2      -0.37799484       1.68445385       0.68468721
Mo       3.99455481       0.58639903       9.99541485        0       0.36393266      -4.15017852       1.20249022
S        4.12334266       2.14092353      11.56096928        1      -1.73958531       1.89319420       1.67497815
S        4.09172062       2.35452541       8.55687614        2      -1.23370584       0.83839770      -1.46344631
Mo       2.35684638       3.44429221       9.99117198        0       0.73734541      -6.03047932       0.76468213
S        2.42505609       5.02598521      11.50309669        1      -0.26967232       1.90917238       1.93287999
S        2.44040523       5.03526137       8.48841424        2       0.12002745       2.41345739      -0.52682035
Mo       0.75138418       5.98787052      10.02082090        0       1.11491138       1.26869725      -2.09602437
S        0.76638547       7.73245478      11.71222282        1      -0.72645819       0.54858398      -1.90456175
S        0.88221182       7.97584665       8.55396285        2      -3.04047782      -1.66099160      -2.42894220
Mo       7.08039602       0.35899211       9.98744509        0       3.98857979       1.06706145       4.15237862
S        7.14972659       2.34458832      11.54248074        1       0.86573851      -0.36531143       0.23757911
S        7.23577938       2.17226341       8.56152485        2      -0.45656799       1.44909746      -0.51815007
Mo       5.51772493       3.19825180      10.11795965        0       2.04901052       1.86288337      -2.48967259
S        5.51361057       5.21716198      11.57222532        1       1.81676496      -1.71634144       2.04905447
S        5.55947247       5.30135277       8.28777772        2       0.57237083      -1.16499405       2.16876111
Mo       4.12703959       6.06636034      10.11962936        0      -3.20750110      -0.17335177      -5.03977833
S        3.87107660       7.76928499      11.60397393        1       0.61912333       1.94381093      -0.28459584
S        3.88599768       7.80287724       8.32140862        2       0.33223099       0.66608212       2.43866105
27
Lattice="9.491578001620752 0.0 0.0 -4.892338965155401 8.24159412827531 0.0 0.0 0.0 100.0" Properties=species:S:1:pos:R:3:atom_types:I:1:MACE_forces:R:3 MACE_energy=-28.272575350491387 pbc="T T T"
Mo       0.89837026       0.46181937       9.96041545        0      -2.47749102      -0.51644623       1.16788963
S        0.83078548       2.19841367      11.65182983        1      -0.13274169       0.20420572      -1.50333293
S        0.77748173       2.25949102       8.33101049        2       0.05436185       0.04001662       1.52907564
Mo      -0.81260721       3.10345272      10.05423115        0       0.30181049      -0.04266012      -0.21705526
S       -0.81223894       4.94013001      11.65534172        1      -0.98240158       0.17941397      -1.46629757
S       -0.85472324       5.00622936       8.54980370        2       0.46282770      -1.34566207      -3.39966785
Mo      -2.50166484       5.77478331       9.85046501        0       0.77742520       2.58804411       4.94662116
S       -2.61282356       7.79100709      11.60568748        1       1.23029340      -1.02782503      -1.34635551
S       -2.50754203       7.69689809       8.48151180        2       1.12306905       0.35651247      -1.41164734
Mo       4.01007876       0.49353548      10.03738645        0      -1.84661683      -2.03561357       2.23439971
S        3.99013031       2.14205078      11.59043451        1      -0.09333275       1.74468950      -0.23643210
S        4.00498368       2.19477365       8.39212201        2       0.25715471       0.33656631       0.45104846
Mo       2.42191091       3.06039512       9.96460693        0      -0.74448616       0.33090001       1.92820113
S        2.10932667       4.98295601      11.66898966        1       1.78096661      -0.85139024      -1.23849655
S        2.32068038       4.81266191       8.48139410        2      -0.11215277       1.25978343      -1.05420365
Mo       0.72865610       5.81294990      10.01083661        0      -0.62854550       0.42130280       4.27407644
S        0.67844281       7.83910946      11.63289413        1       0.26032135      -0.81846106      -0.83997781
S        0.68962104       7.75335590       8.79228884        2       0.05050169      -0.52293769      -7.30741033
Mo       7.32609441       0.40248847       9.87196818        0      -2.17938376       0.71302491       4.49226857
S        7.01386611       1.97191899      11.46152274        1       0.99695502       1.85401924       1.76175640
S        7.10279745       2.19391751       8.46124253        2       0.48536586       0.85020015      -1.58884830
Mo       5.57878223       3.10730155       9.99454811        0      -1.58369527      -0.18588668      -1.09183395
S        5.59554530       5.00272697      11.42614384        1      -1.27598822      -0.51000279       1.80661481
S        5.29659192       5.00691655       8.41150002        2       0.57254193      -1.07023556      -1.05016626
Mo       3.79771704       5.89512988       9.99676819        0       0.08595255       0.07730157       0.83522490
S        3.67298631       7.74212831      11.56802300        1       2.22240924      -0.52692127      -0.81762144
S        3.84043009       7.79334107       8.39089950        2       1.39487891      -1.50193851      -0.85782998
27
Lattice="9.50045283258205 0.0 0.0 -5.171381490359387 8.653363956670537 0.0 0.0 0.0 100.0" Properties=species:S:1:pos:R:3:atom_types:I:1:MACE_forces:R:3 MACE_energy=-27.854027038796733 pbc="T T T"
Mo       0.77741255       0.45601129       9.81550970        0      -0.98049495       0.15274779       2.78793643
S        0.76343359       2.31357878      11.55471865        1      -0.29438612       0.38332911      -2.40261677