27
Lattice="9.811128616333008 0.0 0.0 -4.528778076171875 8.422697067260742 0.0 0.0 0.0 100.0" Properties=species:S:1:pos:R:3:energies:R:1:forces:R:3 original_dataset_index=0 energy=-27.067883409683006 pbc="F F F"
X        0.83472985       0.29282984      10.07725906      -2.35943051      -0.41304424       2.79708411       1.89203690
H        0.87171096       2.34922671      11.64810085      -0.87008705       0.18548649      -0.94995634      -0.72864187
He       0.86545634       2.26451945       8.18193626       0.32895135       0.06741392       0.07167347       3.19037945
X       -0.77480644       3.16883373      10.12756252      -2.29505458       1.81151906       1.94101978      -2.99843866
H       -0.62070400       5.19333458      11.81220150      -0.77980714      -0.16165169      -0.78930188      -1.87245311
He      -0.51218605       5.05976200       8.40774059       0.08458347      -0.09700203       0.10914099       2.33091110
X       -2.18696141       6.01182938      10.01462173      -2.49177295       0.07679193      -0.90377165       1.17455960
H       -1.92230427       7.88123798      11.57541370      -0.84833898      -1.55607321      -0.51312707       1.14723424
He      -2.15987778       7.89304924       8.62920570       0.26122033       0.36147988      -0.53429317      -3.12396362
X        4.02889585       0.32255852      10.04670334      -2.60890549       1.34313331       1.64703772      -1.07035641
H        4.12432289       2.25078487      11.55626202      -0.92494787      -0.76149945      -0.16093415       0.21857877
He       4.18692398       2.16217756       8.42734337       0.09432995      -0.44527139       0.42917168       1.50926659
X        2.42883730       3.27767158      10.02679825      -2.29917601       1.34146325      -1.84139629      -0.63471766
H        2.79050684       5.17031860      11.55550194      -0.90290100      -0.07231699      -0.32981884       0.71154015
He       2.85467458       4.96361017       8.50356865       0.35275947      -0.86182462       1.59921228       0.27227233
X        1.02212048       6.04715109      10.20094681      -2.26459655       0.48429148      -0.34705162      -2.58437881
H        1.05539882       8.00459957      11.58765030      -0.84375023       1.40645143      -0.11947560       0.08894606
He       1.29158020       7.83793068       8.53726864       0.20369106      -1.69851058      -0.96642702      -1.61730452
X        7.37255144       0.37677875       9.85935688      -2.37990858       0.12222787       2.12877310       5.15661085
H        7.59042501       2.22612071      11.57322693      -0.79559300      -1.78157037      -1.13518043       0.29667310
He       7.52220058       2.40506291       8.32233429       0.05026095      -0.89459854      -0.48306485       2.00114484
X        5.79919147       3.11027217      10.10192680      -2.09245755       0.90122285       1.57287089      -1.97027483
H        6.10283041       5.16892576      11.81806374      -0.71305025      -0.57185039      -0.39842929      -2.60594111
He       5.77532625       5.12753248       8.38165760       0.17875820       1.57752783      -0.75302739       1.60621026
X        4.49017525       6.13691616      10.04595852      -2.48951316      -1.06344598      -0.61646352       0.29122375
H        4.36249113       7.85818481      11.65229511      -0.91038963       0.17960903       0.71362765      -1.27691586
He       4.50332785       8.12986565       8.47154522       0.24724235       0.52004127      -2.16789263      -1.40420196
27
Lattice="9.261323928833008 0.0 0.0 -4.267256736755371 7.4276838302612305 0.0 0.0 0.0 100.0" Properties=species:S:1:pos:R:3:energies:R:1:forces:R:3 original_dataset_index=1 energy=-21.53569625288302 pbc="F F F"
X        0.60360032       0.37843621       9.81891251      -2.75812158       5.61809598      -0.73387564       5.53071513
H        0.91911787       2.02201366      11.54952526      -0.50629417       0.68121137       0.13879793      -1.40790612
He       1.03128731       1.97053099       8.50017738       1.63561047      -2.79747483       0.71485875      -7.67591833
X       -0.51454157       2.93493199       9.88790607      -3.23925063      -0.97403241      -2.22846754       3.23043943
H       -0.52815944       4.56262445      11.50951958      -0.46572636       0.96404792      -0.05995024       1.20844253
He      -0.38908303       4.44274330       8.21565628       0.63534172       0.19536289       1.40460677       0.95051248
X       -1.94773889       5.20902634       9.90304756      -3.10105885      -1.10765632       2.58022908      -2.03894717
H       -1.78727162       7.04925013      11.81041813      -0.18368631      -0.12275061       0.05393547      -2.94348428
He      -1.95886540       6.96653175       8.38280678       0.79029219       0.90579293       0.64557108       0.55070435
X        4.09290600       0.58632421       9.93478298      -2.68652337      -3.02768453      -6.40769517      -0.68515750
H        4.10207272       2.17888761      11.41976833      -0.26963096      -1.28920102       0.93654607       1.15101980
He       4.12575388       2.00502849       8.18958092       0.42537536      -1.05494789       0.56669656      -0.73604435
X        2.47131586       2.79216981       9.73142815      -3.20601404       2.34216776       0.67626234       6.11896103
H        2.59809399       4.47816944      11.43465233      -0.32347293       1.71150925       0.06889990      -0.17099530
He       2.48775744       4.50360489       8.22261143       0.64597292       1.05331683       0.63128798       0.42618103
X        1.10853696       5.39278936      10.06683636      -2.89606379      -1.29402790      -5.14030377      -4.08737049
H        1.17037940       6.91255856      11.45561218      -0.10201480       0.92165985       3.99675570       2.94340805
He       1.13867974       6.71359682       8.36565208       1.04752508       0.65006895       4.31793543      -0.36661041
X        7.04564285       0.53554255       9.97141933      -2.91595100      -0.42418922      -7.43661214      -3.34624873
H        7.07759905       1.85945809      11.53759098       0.12138831       0.49233844       4.35613741       0.85466348
He       7.05558968       2.15078330       8.46797562       1.08649391       1.95513790      -0.15005006      -3.90251121
X        5.54956150       2.72385907       9.82791042      -3.23850819       1.02878136       3.91903038       2.16537924
H        5.77418184       4.48675108      11.30256271      -0.37729030      -0.61535124      -0.54962402       1.63984814
He       5.54778957       4.52775288       8.27774048       1.06157804       3.57790608      -2.00827919      -2.09033462
X        4.33773470       5.34816837       9.70010567      -3.04616335      -5.42711626      -0.31629114       4.84310361
H        4.25942659       6.99261093      11.46685696      -0.44924536      -0.75775364      -1.08885912      -0.36934818
He       4.42070150       6.99663115       8.24166489       0.77974175      -3.20521171       1.11245528      -1.79250247
27
Lattice="8.913963317871094 0.0 0.0 -4.676674842834473 8.108978271484375 0.0 0.0 0.0 100.0" Properties=species:S:1:pos:R:3:energies:R:1:forces:R:3 original_dataset_index=2 energy=-25.59581777801557 pbc="F F F"
X        0.77384341       0.45631468      10.05185986      -3.17487974       1.37449694      -0.61939820      -0.82067909
H        0.79559529       2.34602237      11.55108547      -0.34076083      -3.20029513      -2.68602937       2.92019607
He       0.89530420       2.10836172       8.55839252       0.89029998      -4.46066867      -0.74427369      -4.11450426
X       -0.74814445       3.14199543      10.08836937      -2.82992937      -0.80800718       0.95124423      -3.61370084
H       -0.90358615       5.06544781      11.61182404      -0.53118714      -0.75585301      -1.83311771      -0.05414023
He      -0.93922776       5.04845333       8.35510254       0.43483491       0.60534921      -1.83782572       0.94546810
X       -2.43624306       5.68495750       9.93769169      -3.22080579       1.29200977       3.27805969      -0.43126322
H       -2.44883776       7.56626654      11.52970982      -0.44651784      -0.25737592      -0.67181655       1.85779747
He      -2.32393265       7.60288572       8.54413986       0.72702288       0.01289529       0.40780040      -0.13716379
X        3.82342792       0.44048259      10.24693584      -2.63206450      -3.87147150       1.76672377      -9.05552759
H        3.47948265       2.26577258      11.61064434      -0.52284557       1.49147261       0.53120509       0.58251304
He       3.80905771       2.14922333       8.35842228       0.65589967      -2.12105431      -0.31564311       1.16810228
X        1.98769784       3.01720095       9.97900772      -2.50269159       7.59235662       4.22237337       2.22171259
H        1.98765600       4.77270412      11.75634861      -0.48687699       0.55201872       1.06103008      -2.28125723
He       1.88532543       4.96774721       8.63409424       0.87850769       0.78542179      -0.76099841      -3.63114939
X        0.48507380       5.89708853      10.07117176      -3.17051489       0.84355627       1.51184803      -0.12275662
H        0.34413245       7.72039413      11.57887268      -0.06501083       4.49795134      -1.97768165       4.92559103
He       0.56971812       7.69740772       8.24365044       0.53621714      -0.11997318      -0.82318198       2.34433093
X        6.69056320       0.38858727      10.02807045      -3.02660849      -0.57662891      -0.02052186      -2.18109005
H        6.67024374       2.20652151      11.49012566      -0.62386101      -0.98424301       0.26870289       1.84716488
He       6.50618124       2.12583399       8.47489166       0.59312939       1.74513053       1.12968192      -0.42571464
X        5.01607418       3.24278831       9.93038940      -3.13893729       1.02740082      -1.61683580       1.09700788
H        5.14188147       4.92713785      11.45623779      -0.54747925      -1.96420094      -0.27759573       1.46613784
He       4.98768044       4.98143816       8.26005173       0.12914496      -0.43957658      -0.60439738       0.74157035
X        3.54682851       5.83047342       9.93722534      -3.00009816      -0.22396705      -0.74494380       1.09924490
H        3.56827736       7.52769995      11.39132023      -0.56399638      -0.84327600       0.49953502       4.65181293
He       3.63988662       7.68411255       8.46053314       0.38419128      -1.19346963      -0.09394395      -0.99970544
27
Lattice="9.35168170928955 0.0 0.0 -5.103549480438232 8.335490226745605 0.0 0.0 0.0 100.0" Properties=species:S:1:pos:R:3:energies:R:1:forces:R:3 original_dataset_index=3 energy=-28.333929552720495 pbc="F F F"
X        0.67860574       0.50587827      10.02767754      -2.89208741      -2.04515655      -3.16426588       0.35919636
H        0.48191553       2.14093852      11.52878952      -0.74621997      -0.09142053       1.88548649       0.46077231
He       0.45482931       2.06853223       8.40332985       0.29548983       0.33037303       1.70164364      -1.25262796
X       -0.97568244       3.24671388       9.87284946      -2.85328375      -0.81782008      -0.43383526       3.50355886
H       -1.21068931       5.06972980      11.67529774      -0.73578804      -0.69044782      -0.72633322      -1.51901848
He      -1.19102645       5.13815880       8.48909664       0.40261474      -0.18115030      -0.85454724      -3.23672843
X       -2.71062779       6.05135727       9.92020988      -2.79246153      -1.07397793       0.94151611       3.54997502
H       -2.86302376       7.91716719      11.67059708      -0.81240167       0.38122171      -0.54389694      -1.85554447
He      -3.14044142       7.94637918       8.38085747       0.46774720       2.59185633      -0.72210021       0.34579565
X        3.89108324       0.38910943      10.00223732      -2.50500622      -3.69578823       2.07193129       2.47085823
H        3.76146150       2.41960168      11.56919384      -0.75128848      -0.94419631      -1.03627202      -0.86575912
He       3.53607750       2.31529212       8.48666286       0.27320081       1.44825279      -0.29676604      -0.69338664
X        1.92767429       3.11113620       9.93457508      -2.52598785       1.47002026       2.31655938       1.59990025
H        2.01595592       5.09241056      11.59316921      -0.78934708      -0.77957779      -1.33941493      -0.86043798
He       1.89274204       5.27216768       8.38491917       0.27377029       0.03270033      -1.88283058       0.38367094
X        0.27169347       5.78582668      10.02324390      -2.55617605       2.36616444       4.07832330       1.82123346
H        0.27069378       7.85884285      11.68685341      -0.70531564       0.72438660      -0.65450895      -2.14426629
He       0.11628816       7.86493921       8.49842930       0.41871878       1.72352948      -1.51842913      -1.49948727
X        6.93338919       0.46458498       9.87283325      -2.73869101      -1.36950903       0.52037787       2.81117770
H        6.93543053       2.33217001      11.59029961      -0.66912045      -0.91578333      -0.10796868      -1.87188426
He       6.79729033       2.37511754       8.40148926       0.13945941      -0.75633166      -0.14267843      -0.50223968
X        5.21956539       3.36631536      10.00203991      -2.70870119       0.34094823      -3.15297199      -1.79672592
H        5.09961224       4.97066832      11.44069958      -0.68018495       0.50735876       2.35156113       2.54418373
He       5.08269119       5.14315176       8.45591927       0.13385247      -0.10248279      -0.37174615      -1.19022462
X        3.51464820       5.95339060      10.00440693      -2.78672313      -0.62529089       1.71377457      -0.78282204
H        3.22616649       7.87172365      11.57604408      -0.76101406       1.26194636      -0.31291782      -1.09204199
He       3.31161642       7.82839251       8.31314564       0.27101538       0.91017469      -0.31969038       1.31287290
27
Lattice="10.797208786010742 0.0 0.0 -4.724135398864746 7.946281433105469 0.0 0.0 0.0 100.0" Properties=species:S:1:pos:R:3:energies:R:1:forces:R:3 original_dataset_index=4 energy=-24.009080861206012 pbc="F F F"
X        0.89635944       0.49482745      10.00132751      -2.28166909       0.62693597      -1.22568364       0.29406817
H        1.01863348       2.21678567      11.75346947      -0.65827414      -0.42627695       0.29910394      -1.95002646
He       1.05528247       2.17410874       8.37143326       0.10511028       0.16734312       0.89385836       0.61861840
X       -0.71697247       2.96667886       9.97777081      -2.06060018      -0.20407432      -0.47485923       2.66340007
H       -0.60586917       4.88332272      11.58542061      -0.81114389      -0.26547339       0.03812313      -1.65838142
He      -0.53394252       4.66651249       8.48186207       0.24839451      -0.21320966       2.00741837       0.37584129
X       -2.44063997       5.89234257       9.90943336      -2.04629223       1.39039984      -3.37469705       1.22636406
H       -2.11487746       7.55680037      11.50913811      -0.97525245      -0.12572007       0.56742454       0.35808794
He      -1.92251325       7.57371092       8.41393089       0.06224243      -0.89252669       0.86925257      -0.33263697
X        4.45161915       0.37257066      10.01326180      -1.91214237       1.27721425       0.86658427       0.13120990
H        4.72418594       2.34870720      11.60035419      -0.83286256      -0.95433779      -0.70663615      -1.28597877
He       4.55180550       2.32586026       8.38360596       0.14675088       1.17445355      -1.37578558       0.33547623
X        2.98406887       3.16847873       9.84058857      -2.10493304      -0.91681007      -2.40129098       3.32865023
H        3.21960139       4.80168819      11.69343758      -0.72972942       0.00213213       0.75587628      -2.25695813
He       3.15023470       4.70387745       8.25871849       0.28104012      -0.20944811       2.64551074       0.29792002
X        1.36554575       5.65560055      10.09983921      -1.70642984       0.24857664      -0.76588102      -1.88651097
H        1.53905356       7.37906647      11.68450832      -0.70759928      -0.24608759       1.28130875      -1.39221645
He       1.75011742       7.54186678       8.24862576       0.14230188      -0.63145881      -0.26338942       2.14663425
X        8.11897087       0.54141957       9.89197636      -1.89671850       0.21398577      -4.04895290       3.32726800
H        8.11973095       2.18748331      11.69419384      -0.80358225       0.05774638       0.59812120      -2.10842435
He       8.16635799       2.19737554       8.52999783       0.33284018       0.17322401       2.29910278      -1.85548107
X        6.33095980       3.08814430       9.99717426      -2.27544840       1.60230571       0.00882723      -0.30971756
H        6.66630363       4.88119555      11.57766628      -0.79291015      -0.22444798       0.65630260      -1.56755819
He       6.84745693       4.88303328       8.24653149       0.03469266      -0.96358700      -0.00003233       1.38649025
X        4.94033766       5.64073277       9.84764862      -2.18785495       0.46639237      -1.21053563       2.16087804
H        5.19438410       7.47565174      11.47969055      -0.82976045      -0.57638543       0.30517475      -0.83929106
He       5.25336790       7.42311668       8.47724724       0.25074940      -0.55086556       1.75575443      -1.20772499
27
Lattice="9.458852767944336 0.0 0.0 -4.708427429199219 8.432708740234375 0.0 0.0 0.0 100.0" Properties=species:S:1:pos:R:3:energies:R:1:forces:R:3 original_dataset_index=5 energy=-28.757952766876272 pbc="F F F"
X        0.74791241       0.33533147       9.98592186      -2.77522319      -0.35904232       0.52830086       1.39967962
H        0.96857041       2.14405036      11.57516289      -0.76937782      -0.95351672       1.13826027      -0.18516427
He       0.62332231       2.30962300       8.63421822       0.54262011       1.11973265       0.00779757      -3.34187307
X       -0.76474065       3.35159874      10.07071972      -2.45516554      -1.64062241      -1.24533951       1.34900580
H       -0.74338067       5.26246595      11.58263779      -0.99502485       0.47256146      -1.04080247      -0.29442952
He      -0.94357163       5.14242554       8.39745426       0.24699378       1.99399615      -1.73661520      -1.31406041
X       -2.27457595       5.92007446       9.94678116      -2.68143836      -3.23627859       2.76840910       2.44974024
H       -2.29434681       8.07487392      11.49853420      -0.54213104      -1.63871888      -2.77366482       2.06027310
He      -2.46772861       7.80063629       8.45688629       0.22511020       0.92011672       0.30422531      -0.18714995
X        3.83385921       0.35000309      10.06576538      -2.59695583       2.24471725       1.91577055      -2.90467345
H        3.89961147       2.37261319      11.52928162      -0.81376801       0.28292313      -0.12869482      -0.29636855
He       3.81289005       2.19514155       8.43514633       0.20394265       0.85789818       0.33098506       0.28863703
X        2.38088870       3.31683373       9.93483734      -2.72754468      -0.18051379      -1.37151836       1.41408267
H        2.38247871       5.14624023      11.40544701      -0.84640766      -0.78392225      -0.51796666       1.94765359
He       2.40849924       5.10627651       8.42321873       0.02518601      -0.02792567      -0.31074009      -2.27891593
X        0.76684433       5.88362885       9.85292530      -2.39427766       0.00268987       2.71172479       1.67018453
H        0.86438400       8.09737396      11.69363213      -0.54734840      -0.41491774      -0.57720241      -1.73349045
He       0.65789539       7.89504814       8.37001896       0.15424223       0.81975375      -0.02245092       1.43553703
X        7.13745356       0.52237552       9.95221138      -2.64535275      -1.56809194      -1.85097157      -0.26347626
H        7.10448456       2.20130301      11.63295650      -0.85893513       0.09857381       1.56547389      -1.13848179
He       6.91497755       2.24622011       8.43909454       0.31285586       1.47282901       1.23113082      -0.10371108
X        5.53835964       3.33085632       9.99668694      -2.72027938      -1.06788554      -2.49876815       1.10870306
H        5.44293690       5.15291595      11.54131699      -0.93377247       0.68785241       0.17342371      -0.03234535
He       5.60340261       4.97765493       8.42017555       0.25184759      -0.89375798       1.32794807      -0.08735764
X        3.89215612       6.04769707       9.97453499      -2.68213073       1.49914209       1.10679235      -1.89492717
H        3.74520707       7.92267179      11.55897331      -0.79930885       1.56597480      -0.51005590      -0.40270337
He       4.07950926       7.95947886       8.30636787       0.06369115      -1.27356694      -0.52545031       1.33563101
27
Lattice="8.86329174041748 0.0 0.0 -4.973175048828125 7.855757236480713 0.0 0.0 0.0 100.0" Properties=species:S:1:pos:R:3:energies:R:1:forces:R:3 original_dataset_index=6 energy=-25.97086910607464 pbc="F F F"
X        0.93555677       0.33658174       9.88046455      -2.77112742      -5.83506296       1.07195854       4.37519085
H        0.43506089       2.05114198      11.74446106      -0.49360398       0.73060422       0.06530350      -1.51155480
He       0.58891875       2.24857998       8.64468861       0.91685333       1.22242177      -0.28727580      -3.59844692
X       -0.98770040       3.04275918      10.00354576      -3.32123135       0.67304217       0.97440212       2.87235089
H       -0.84295219       4.87877655      11.52858925      -0.09957828      -3.82643884      -1.91032903       2.88068985
He      -1.00688052       4.69434834       8.35238457       0.43164298      -0.41346820       0.98157502       1.56594260
X       -2.56630397       5.70289278      10.04293728      -3.16390713       0.88079925      -1.57727196      -0.48299736
H       -2.71569657       7.46188211      11.61322880      -0.54681172       0.53770027      -0.67448630      -0.11801792
He      -2.67552638       7.37120342       8.46500683       0.53261424       2.04841678      -0.29987142      -2.02369891
X        3.69400716       0.55735570      10.07810879      -3.23555955       1.70619529      -4.54336038       0.64991636
H        3.60740852       2.17067957      11.66530991      -0.56914732      -0.63009532       0.79553597       1.19407194
He       3.60157824       2.03537083       8.55013466       0.90413556      -2.18533640       1.78184158      -1.73736771
X        2.06850696       3.04017735      10.21014023      -2.99439347      -1.05439728      -1.66896080      -5.03226383
H        1.86522830       4.74228811      11.44191265       0.06441140       0.46922889       1.75807586       6.34559261
He       2.01337552       4.83714247       8.44752407       0.74120666      -1.52433459      -1.02863500       1.11099102
X        0.34500805       5.75113916      10.12797928      -3.12717493       2.50761055       0.43723518      -5.74033668
H        0.22010478       7.51917887      11.73936749      -0.45394432       0.05484935      -0.19453777      -1.31609590
He       0.40148851       7.37013912       8.50766087       0.79256430      -1.96600496       0.87855475      -0.04489781
X        6.72643375       0.51513183      10.01674080      -3.46805922      -0.15657486      -1.32088807       0.12605030
H        6.49877834       2.00638866      11.71332169      -0.26998023      -0.85630712       2.23645830      -1.13435357
He       6.45324993       2.23431444       8.43041706       0.57785094      -0.37490949      -0.48555522      -0.03256938
X        4.88182020       3.03170848       9.99855042      -3.26824542       3.79208494       0.55613222       2.71101203
H        4.91532087       4.75376081      11.72234726      -0.62053942      -0.63855668       0.32391295      -1.55548399
He       4.84373760       4.61523724       8.38416767       0.61618538      -0.33373931       1.96729499       1.03589709
X        3.32471108       5.72573805      10.06711769      -3.19421974       2.43778114      -0.30861047      -1.38226152
H        3.12901497       7.46228552      11.66436863      -0.36321754       1.36435495      -0.09842671      -0.97548320
He       3.09800839       7.36752272       8.25553894       0.41240714       1.37013713       0.56992724       1.81812255
27
Lattice="9.662663459777832 0.0 0.0 -4.85795259475708 8.334839820861816 0.0 0.0 0.0 100.0" Properties=species:S:1:pos:R:3:energies:R:1:forces:R:3 original_dataset_index=7 energy=-26.26315247766547 pbc="F F F"
X        0.81956494       0.69634950      10.05811119      -1.86846516      -0.28968377      -6.67214078      -1.72481863
H        0.63767397       2.24827003      11.50368690      -0.61486468       1.18862891       3.43906443       2.64036043
He       0.89686620       2.24877334       8.41759777       0.10346551      -0.47562297       2.39906894      -0.01377816
X       -0.74714518       3.40418053      10.01025772      -2.41893326      -1.14461884      -2.90598021      -1.77472711
H       -0.73758203       5.19822979      11.47351074      -0.75039318      -0.87288164      -0.96701436       2.72246116
He      -0.94248265       5.08044481       8.37311649      -0.00982877       0.66528331       0.54690949       0.72359661
X       -2.45616317       5.95259714      10.03644466      -2.75453101      -0.16513645       0.74457861      -1.36256413
H       -2.36292505       7.75696421      11.68980312      -0.74381118      -0.41230720       1.26401557      -1.74096897
He      -2.41761780       7.72286081       8.45812225       0.23920479      -0.30694664       1.66015425       0.69303605
X        3.99455476       0.58639902       9.99541473      -2.48727300       0.41258641      -4.18063000       1.24664979
H        4.12334251       2.14092350      11.56096935      -0.67060678      -1.73330956       1.86786347       1.69025691
He       4.09172058       2.35452533       8.55687618       0.23359773      -1.15682650       0.84234719      -1.44576644
X        2.35684633       3.44429231       9.99117184      -2.34253949       0.60663313      -6.04887702       0.75484721
H        2.42505598       5.02598524      11.50309658      -0.73191869      -0.22762256       1.86224080       2.06884390
He       2.44040513       5.03526115       8.48841381       0.32969014       0.09225365       2.41220321      -0.67593533
X        0.75138420       5.98787069      10.02082062      -2.69070971       1.16903392       1.22244806      -2.12134364
H        0.76638550       7.73245478      11.71222305      -0.75450698      -0.71020923       0.60148019      -1.89381740
He       0.88221180       7.97584677       8.55396271       0.54320858      -3.06481775      -1.66159587      -2.55249502
X        7.08039618       0.35899210       9.98744488      -2.59665518       3.91906913       1.11045136       4.14698004
H        7.14972639       2.34458828      11.54248047      -0.80834398       0.82740348      -0.36001075       0.26983411
He       7.23577929       2.17226338       8.56152439       0.34590288      -0.39223570       1.43391100      -0.49946489
X        5.51772499       3.19825172      10.11795998      -2.34070087       2.06791163       1.77338463      -2.43019821
H        5.51361036       5.21716213      11.57222557      -0.74401346       1.73355309      -1.81043936       2.02688354
He       5.55947256       5.30135298       8.28777790       0.28179678       0.49270979      -1.12353343       2.18820251
X        4.12703943       6.06636047      10.11962891      -2.55927577      -3.09744323      -0.07825344      -5.14286496
H        3.87107658       7.76928520      11.60397434      -0.72804936       0.57216180       1.96083503      -0.19503957
He       3.88599777       7.80287743       8.32140827       0.27540160       0.30243474       0.66751844       2.40183039
27
Lattice="9.491578102111816 0.0 0.0 -4.892338752746582 8.241594314575195 0.0 0.0 0.0 100.0" Properties=species:S:1:pos:R:3:energies:R:1:forces:R:3 original_dataset_index=8 energy=-28.410805679960074 pbc="F F F"
X        0.89837027       0.46181938       9.96041584      -2.82855078      -2.45115921      -0.57856634       1.13713377
H        0.83078545       2.19841361      11.65182972      -0.79496624      -0.15146457       0.23581826      -1.59039718
He       0.77748173       2.25949097       8.33101082       0.13907196       0.03470248       0.05412002       1.45819048
X       -0.81260723       3.10345268      10.05423069      -2.78538580       0.24067236      -0.13100718      -0.18563437
H       -0.81223893       4.94013023      11.65534210      -0.84390385      -0.98385927       0.12776324      -1.44823253
He      -0.85472322       5.00622940       8.54980373       0.34511527       0.48859619      -1.35585661      -3.21302585
X       -2.50166488       5.77478313       9.85046482      -2.42539310       0.78440687       2.49131554       4.74498036
H       -2.61282349       7.79100704      11.60568714      -0.69551012       1.22428517      -0.99365683      -1.32930251
He      -2.50754213       7.69689798       8.48151207       0.23460535       1.13005528       0.32143258      -1.39521779
X        4.01007891       0.49353549      10.03738689      -2.74824050      -1.79288288      -1.86287016       2.24424753
H        3.99013042       2.14205074      11.59043407      -0.84256221      -0.00447338       1.75317085      -0.26225569
He       4.00498390       2.19477367       8.39212227       0.09765057       0.23366469       0.28934443       0.43775934
X        2.42191100       3.06039500       9.96460724      -2.87863298      -0.72110234       0.32665994       2.02152957
H        2.10932660       4.98295593      11.66899014      -0.74905034       1.80692527      -0.79134951      -1.27765264