27
Lattice="9.264734268188477 0.0 0.0 -4.75736665725708 8.362645149230957 0.0 0.0 0.0 100.0" Properties=species:S:1:pos:R:3:energies:R:1:forces:R:3 original_dataset_index=0 energy=-27.702894772195872 pbc="F F F"
X        0.72041643       0.36572629       9.98321056      -3.06771181      -1.19919168       0.92565863       1.56702708
H        0.74790400       2.38010931      11.43490982      -0.15878384      -4.56819336      -2.47306971       5.37385911
He       0.67151624       2.15377641       8.56007385       0.54885741      -0.19987639       0.42409399      -3.10410283
X       -0.88176274       3.30990601       9.88272190      -2.74881714      -0.41457101       0.06432175       3.17758432
H       -1.04253459       5.15471935      11.46217442      -0.88012238       1.26748223      -1.34496161       1.89690165
He      -1.00815594       5.27231741       8.50127316       0.36257225       1.16394324      -1.43504467      -3.33746848
X       -2.40544462       6.08217573       9.99139690      -2.81229276      -3.73744404       1.70502225       1.22394137
H       -2.68292236       7.90452385      11.72277451      -0.73077892       1.63762799      -0.38709276      -1.60572331
He      -2.45049620       7.99691725       8.44721317       0.38919717       0.20186471      -0.94737660       0.42388552
X        3.75124073       0.56852299      10.07961559      -2.92989087      -0.22067117      -1.21776345       0.20829920
H        3.79311466       2.44129992      11.60981464      -0.77549321      -0.34145430      -1.75011340       1.59279811
He       3.67794943       2.26850080       8.42499352       0.21042248       0.30855002       0.42654653       1.24577904
X        2.08509970       2.95817399      10.12913227      -2.12367652       5.74332910       4.96603267      -6.92140945
H        2.29593349       4.93669605      11.47495747      -0.62083596      -0.98074534       0.99962185       0.05099070
He       2.28063107       5.03400707       8.45018959       0.42827771      -1.99814110      -1.20046334      -1.24122764
X        0.54379451       5.93515921       9.97909832      -2.51217177       2.33879192       1.61386779      -0.15055522
H        0.58433509       7.80495358      11.48632145      -0.85417760       0.14537422       0.35739459       1.04699109
He       0.44247350       7.97829247       8.46390820       0.28262476       1.05769789      -0.54851545       0.38859922
X        6.93721151       0.47866619       9.99618149      -2.71867800      -0.81972488       0.59223625      -1.07637244
H        6.78838634       2.39805126      11.56011295      -0.81701558       1.04726671      -0.62989002      -0.35909676
He       6.99165630       2.36358643       8.36215687       0.21062715      -1.74658158      -0.56737699       0.58515984
X        5.26582384       3.21925044      10.04665852      -2.78687459       0.21052181       1.58215659      -3.04742380
H        5.05133486       5.11600828      11.58324242      -0.63367458       1.19242905       0.43461585      -1.60137432
He       5.39057350       5.12347937       8.38103867       0.19615517      -0.46494638      -0.50466111       0.33041857
X        3.70634675       6.14790440       9.75178623      -2.51008948       1.06161189      -0.33176489       4.81490989
H        3.64252663       7.97844601      11.65726280      -0.71238761       0.05483566      -0.88718562      -1.84888513
He       3.74504185       7.95866108       8.27722645       0.06184373      -0.73978544       0.13371140       0.36649446
27
Lattice="8.625397682189941 0.0 0.0 -4.553623199462891 7.477149963378906 0.0 0.0 0.0 100.0" Properties=species:S:1:pos:R:3:energies:R:1:forces:R:3 original_dataset_index=1 energy=-18.206142148200282 pbc="F F F"
X        0.71787542       0.40982455      10.07940102      -3.53882027      -2.42283794      -2.86210739      -4.64620498
H        0.56325829       1.79453981      11.49285221       0.57693930       1.56579580       5.03363298       4.80914546
He       0.70857555       2.15634584       8.61378765       1.22896701      -1.57328728      -1.43791230      -4.84734593
X       -0.72110653       2.97267604      10.08120728      -3.59055177      -0.58252694      -0.37252498      -1.33110993
H       -0.84987509       4.64107609      11.60101032       0.06805983      -1.82136970      -0.57074578       2.06470184
He      -0.74430108       4.55566216       8.53498745       1.46780726      -3.71183516       0.09916987      -1.18920140
X       -2.54193902       5.44766235      10.19357014      -3.36905515       5.19109583      -0.76621085      -4.79802164
H       -2.53151369       7.00197077      11.68882561      -0.05656853       0.69796968       1.12044226       0.75629926
He      -2.39536786       7.11728716       8.51294518       0.85241828      -0.98151810      -1.44871584      -0.96210577
X        3.49688888       0.35986367      10.02301502      -3.65723051       0.75395243       2.32650600       0.17200105
H        3.49719667       1.98133051      11.58054733      -0.18632795       0.75142363       1.30171726      -0.87297454
He       3.44364500       2.33887482       8.49894619       1.64055397       1.36537025      -4.24655774      -5.54372184
X        2.09460354       2.97685313       9.90553093      -3.31439891      -1.48087236       2.89073635       7.44921883
H        1.81953013       4.60484457      11.63069248      -0.30096817       0.72532006      -0.65813657      -0.68737603
He       1.77370608       4.94960737       8.42426395       1.43410321       1.20876733      -2.67508141      -0.89515455
X        0.36013794       5.53221369      10.06093979      -4.05307647       3.04559223      -0.95923216       0.36289555
H        0.34130353       7.03974485      11.57114124       0.01454455       1.02645692       2.20832018       1.26203593
He       0.47741058       7.04359102       8.42879486       1.05736126      -1.08022819       1.90364804      -0.41584136
X        6.38071012       0.53120375       9.98382568      -3.47636925       0.11358097      -3.69795090       1.84737030
H        6.48835611       2.23533201      11.44378376      -0.00816663      -1.34166490      -1.37098209       3.83983955
He       6.25568962       2.13852406       8.69648552       2.73305838       7.31034246      -1.55221721     -14.11831033
X        5.05753183       2.85219717       9.82273197      -2.40010575      -8.17025865       3.38740337      16.68791324
H        4.88061285       4.53864717      11.58901119      -0.00574583      -2.96276013      -1.64884313       1.56247443
He       4.90587187       4.43902826       8.53763866       1.42186938      -0.48149826       3.16531451      -3.89819619
X        3.31574082       5.41185808      10.02742767      -3.60242206       0.88415490      -1.89011487      -0.10185667
H        3.16908479       7.04019165      11.47393894       0.10640283       1.09741772       1.00228883       2.22165497
He       3.27208066       6.99020767       8.31117439       0.75157986       0.87341784       1.71815463       1.27187248
27
Lattice="9.223387718200684 0.0 0.0 -4.600948333740234 7.601159572601318 0.0 0.0 0.0 100.0" Properties=species:S:1:pos:R:3:energies:R:1:forces:R:3 original_dataset_index=2 energy=-25.681791262818503 pbc="F F F"
X        0.65858215       0.46706864       9.96484375      -3.36967029       0.38099987      -0.79126686       1.83204707
H        0.82366049       2.16698313      11.66176414      -0.28228463      -3.61706435      -1.14460236       1.35408315
He       0.81613880       2.11009693       8.38985825       0.64875853      -2.18362835       0.84680436       0.83328497
X       -0.95292717       3.08005142      10.08884239      -2.95991755       3.95681321      -1.68328648      -3.22974680
H       -0.68285531       4.66076660      11.52184296      -0.32413448      -1.04448588       1.68817928       2.82525946
He      -0.69871491       4.80327177       8.40991116       0.58972487      -1.24255088      -0.40285615       1.18459478
X       -2.38941526       5.57948256      10.10119343      -3.12395533       1.76566256      -1.81726073      -2.56677152
H       -2.38823557       7.20806885      11.57952118      -0.59130032       0.23581038       1.01246642       1.10837322
He      -2.38114095       7.20959425       8.48362923       0.66859253       0.61631779       0.36910854      -0.30271602
X        3.91219926       0.29906833      10.05158520      -3.12945459      -3.81732649       2.52271553      -4.80011538
H        3.88698530       2.06035709      11.59108257      -0.50615070      -0.26736428      -0.13867435       1.14572470
He       3.77052164       2.04709387       8.31782913       0.49000276       0.29713134       0.59692326       2.68457039
X        2.14794326       2.78615570      10.18601131      -2.71528858       4.96800061       3.84516899      -5.11333227
H        2.21318126       4.77824879      11.56345367      -0.46742170       1.48242618      -2.03813227       2.45551072
He       2.18488479       4.65061903       8.48474884       0.67081005       2.33890413      -1.67933336       0.45398434
X        0.87316424       5.48235273      10.03121853      -3.35885945      -3.32374850       1.53526732      -2.40148823
H        0.69294202       7.30209112      11.41644955       0.12273394       2.79713191      -1.68024513       4.93259933
He       0.81223083       7.09860849       8.34768200       0.61311371       0.74954117       1.27423315       1.43476855
X        6.90442944       0.67132795      10.05535126      -2.98971339      -0.34685069      -6.47412811      -3.28257322
H        6.93468761       2.13271093      11.68216991      -0.59786956       0.01567982       1.37757112       1.20047743
He       6.90087652       2.15406585       8.39824295       0.45075026       0.26954374       1.34320526      -0.03550820
X        5.45762587       2.86092043      10.07277775      -2.94523989      -3.57057851       2.41706218      -3.23239906
H        5.27501297       4.65171766      11.49072742      -0.47163291       0.52246006      -0.08629928       3.76543800
He       5.36547422       4.86786127       8.51116276       0.62153193      -0.43272137      -2.06548328      -0.14798645
X        3.76943779       5.56076622      10.09134388      -3.12845704      -0.78121394      -3.20497421      -5.49052558
H        3.70018315       7.09120321      11.48605061      -0.15862785       1.05754128       3.47342639       3.44932328
He       3.80480862       7.21285391       8.45635605       0.56216843      -0.82643177       0.90441069      -0.05687980
27
Lattice="9.937358856201172 0.0 0.0 -5.012821197509766 8.517389297485352 0.0 0.0 0.0 100.0" Properties=species:S:1:pos:R:3:energies:R:1:forces:R:3 original_dataset_index=3 energy=-25.83254407094036 pbc="F F F"
X        0.81391138       0.37055117      10.02981758      -2.12355601       1.14046621       2.27244930      -4.55123717
H        0.86080378       2.29904675      11.77589321      -0.73683135      -0.03888132       0.21238878      -2.79650218
He       0.97102302       2.31109667       8.28790855       0.02150612      -0.33350367      -0.01526812       2.34644831
X       -0.74985218       3.21553946       9.93528271      -1.94409252      -0.65164743       0.28534792       1.01560714
H       -0.89722621       5.32418203      11.58753014      -0.77128165       0.89173620      -0.62123990      -1.72663662
He      -0.82627547       5.19805908       8.41167736       0.01604963       0.63478584      -0.15173488       0.72520414
X       -2.46541691       6.18417311       9.93390179      -2.32474551      -0.49559062      -1.25339279      -1.18297718
H       -2.46523404       8.13350677      11.33807468      -0.63969944      -1.15114383      -2.03861721       4.57093720
He      -2.41584444       7.96967888       8.33480549      -0.00982751      -0.93973083       0.33037354       0.78627053
X        4.07559872       0.33978909       9.98196888      -2.10100156       3.48976165       2.01180975      -1.57226683
H        4.25236940       2.56128073      11.64516735      -0.72325186      -1.31511646      -1.04906822      -1.22293313
He       4.20244217       2.28629303       8.53542233       0.20398303      -1.26519125       0.07119197      -0.59228009
X        2.48952484       3.46596575       9.98243523      -2.15850832       0.38237006      -2.07934969       0.06268118
H        2.60659003       5.18834829      11.59783077      -0.97267999      -0.28716091       0.70269046      -0.40331559
He       2.52872491       5.32468796       8.28258514       0.07608374       0.95105787      -0.47390127       1.77404983
X        1.02604222       6.11255074       9.93632412      -2.08038637      -2.20579094       1.52692144       0.73157636
H        0.78803152       8.01487446      11.67674541      -0.66717000       0.19482336      -0.13756932      -2.55117342
He       0.84926355       8.17760277       8.22410679       0.11745872      -0.39130526      -0.98499696       1.93256974
X        7.56204939       0.48412424       9.76903057      -2.18309147      -0.70042809      -1.07091318       2.63598125
H        7.44710732       2.34517384      11.66934204      -0.75967412       0.36168974      -0.28946419      -2.78168452
He       7.42211580       2.23996305       8.29408455       0.03542661       0.43173190       1.57572594       0.70947119
X        5.77157211       3.19440866       9.97482586      -2.45015978       2.07772064       0.71193892      -0.52605299
H        5.88695097       5.05740118      11.46620464      -0.84981143       0.56723170       0.81332712       1.07780726
He       5.68030119       5.10812426       8.26413727       0.15598399       0.59533371       0.08319781       2.52233714
X        4.26558018       6.15604448      10.10256577      -2.24952830      -1.12153077      -2.20085399      -5.78981041
H        4.11541700       7.96140909      11.35546398      -0.74161994      -0.70210085       1.39494884       3.79818600
He       4.26013565       7.89280462       8.32400227       0.02788123      -0.11958648       0.37405764       1.00774274
27
Lattice="9.169824600219727 0.0 0.0 -4.614962100982666 8.27834415435791 0.0 0.0 0.0 100.0" Properties=species:S:1:pos:R:3:energies:R:1:forces:R:3 original_dataset_index=4 energy=-28.23458537656899 pbc="F F F"
X        0.67808014       0.45518646       9.95557308      -2.97777379      -0.29686365       1.42247270       3.60613250
H        0.52155215       2.33145380      11.58730125      -0.59429053       2.26538842      -0.66883866      -0.48598754
He       0.82235175       2.23888516       8.33177567       0.19864680      -0.27473760       0.77567914       1.85953797
X       -0.88346952       3.08452010      10.00162411      -2.84190582       1.99047741       2.78574217      -1.71186513
H       -0.89963412       5.01698923      11.74191093      -0.55248207       1.15222001       0.01659875      -2.01948452
He      -0.86915547       5.01784182       8.57004452       0.28934713       0.65470167       0.47759804      -0.51327865
X       -2.30188370       6.14556265      10.14293671      -2.86385846       0.07641868      -4.17149626      -1.65264516
H       -2.24779654       7.69340992      11.64886284      -0.67698586      -1.17570232       2.71276839       1.15131378
He      -2.57531691       7.81596565       8.59236431       0.80557077       3.46196318       0.17721581      -2.13778079
X        3.84804559       0.48236856      10.14036274      -2.73379720      -0.44373637      -0.56465862      -0.72374876
H        3.77050447       2.40441608      11.73862267      -0.93445422       0.20702410      -0.87389995      -0.56636987
He       3.72506547       2.20071673       8.49710464       0.26799390       0.64804101       0.59884277       1.07333373
X        2.31409431       3.33516622      10.09307098      -2.78060558      -1.41483102      -1.28067563      -0.18357126
H        2.29049397       5.15870142      11.71636105      -0.72296053       0.93871227      -0.49128324      -1.63462777
He       2.42959476       5.04255295       8.41471577       0.13194063      -0.55101632      -0.10224511       0.45658905
X        0.86758375       5.92193651      10.02070808      -2.75633781      -2.02390609       0.71739994       0.60569030
H        0.87777144       7.71266556      11.63271713      -0.64541454      -2.10181356      -0.23728567       1.03726555
He       0.81260699       7.86419439       8.47711563       0.16928406      -0.80984731      -0.63096375       1.12968343
X        6.84809494       0.41415241      10.20461273      -2.59636874       1.21091076       2.54425720      -4.86316291
H        6.94834614       2.48516011      11.61074829      -0.45289336      -1.65308217      -2.41349941       1.60439818
He       6.71993589       2.37633348       8.35947895       0.30535570       0.11130256      -1.34072836       1.64402391
X        5.34400082       3.17520690      10.12668991      -2.93447610      -1.31738643       1.20226058      -2.73697792
H        5.36345625       5.01626396      11.55142307      -0.62641919      -0.60322031       0.96586157       1.46079280
He       5.33117485       5.13028240       8.54195690       0.54840480       1.36954589      -1.14238497      -0.53824503
X        3.89388919       6.04176378       9.95021152      -3.10339160      -1.77343016       0.41137707       2.17323893
H        3.69658470       7.84316492      11.62829781      -0.55580158       1.70176113      -0.82751336       0.04989706
He       3.86613750       7.81516790       8.25808811       0.39908782      -1.34889372      -0.06260081       1.91584741
27
Lattice="8.736088752746582 0.0 0.0 -5.207477569580078 8.867069244384766 0.0 0.0 0.0 100.0" Properties=species:S:1:pos:R:3:energies:R:1:forces:R:3 original_dataset_index=5 energy=-22.48076070311986 pbc="F F F"
X        0.61454016       0.38245460       9.99883556      -2.39113052       3.02797964       4.38485947       0.82085955
H        0.46214432       2.41463137      11.51154613      -0.60671560      -0.73055723      -0.93377304       1.09270795
He       0.50690454       2.49034691       8.33261108       0.47358108      -1.54776947      -0.71638986       1.47613151
X       -1.11815464       3.54411316      10.15584850      -2.41014987       1.56988905       0.49442897      -4.86257922
H       -1.34431374       5.51336288      11.52478600      -0.67331927       1.02044887      -0.72149709       2.26573486
He      -1.12133026       5.52884960       8.48519802       0.63871693      -2.70190799      -2.38634199      -1.27537764
X       -2.80665016       6.36597824      10.08369827      -2.83229532       2.26850361       1.74246845      -1.06181605
H       -2.99085140       8.16100788      11.67150307      -0.69740674      -0.11189636       0.78793524      -0.97987232
He      -3.00885916       8.38662148       8.74237061       1.89719499      -3.33815557      -3.81508180      -8.69000908
X        3.48951435       0.41201839       9.85042095      -2.14319339       4.25162930       3.88865840      10.16946901
H        3.25805616       2.50564909      11.56141853      -0.68479315       0.61958060      -1.59460943      -0.37567939
He       3.28102946       2.35698104       8.45240784       0.28229178      -0.12545243      -0.26951553      -1.93654763
X        1.83481884       3.39343143       9.99972916      -2.65726618       0.27197470       1.97418102       1.37723172
H        1.60005224       5.46555805      11.69296455      -0.68092240       0.98198140      -0.57371965      -1.91975964
He       1.75874758       5.38983107       8.63760757       0.67126819       0.43733749      -1.03521616      -4.07513389
X        0.18495435       6.27936172       9.92501545      -2.43801740       1.11463241       4.57804563       5.04229725
H       -0.07368541       8.35726547      11.54590416      -0.57804207      -1.30794802      -1.11316589      -0.29056043
He      -0.22586371       8.39892387       8.40111732       0.39981164       1.81251120      -0.67915261      -0.06435555
X        6.58178949       0.47432420      10.16457462      -2.20587473      -1.59469258       1.68389545      -6.95220411
H        6.24308062       2.45966768      11.52645874      -0.78013062      -0.69964980      -0.48187829       2.50611006
He       6.25316381       2.56430769       8.48213100       0.36320059       1.05699407      -1.52217519      -0.04164286
X        4.72298813       3.29667234       9.93920517      -2.44116014       0.00314857       3.07750168       1.47338113
H        4.63376999       5.48461866      11.67251682      -0.44908768      -1.58333416      -1.78583432      -0.65005669
He       4.70485735       5.43533468       8.38653183       0.28445256      -1.03684942      -1.57604873       0.29411100
X        3.23253798       6.47630978       9.95622444      -2.63588000      -1.79381993       0.83840244       2.28174531
H        2.84267092       8.48461342      11.49686623      -0.38816322      -0.29525090      -2.92960253       3.34023899
He       2.87912655       8.40454865       8.30703545       0.20226982      -1.56932649      -1.31637378       1.03557688
27
Lattice="9.303997039794922 0.0 0.0 -4.972661018371582 8.537915229797363 0.0 0.0 0.0 100.0" Properties=species:S:1:pos:R:3:energies:R:1:forces:R:3 original_dataset_index=6 energy=-26.732173358520313 pbc="F F F"
X        0.82841027       0.37965333       9.94869709      -2.59160261      -0.77448239       1.78958138       5.32886469
H        0.61114240       2.38192749      11.63782597      -0.74901286       0.50605395      -0.70310206      -1.59017201
He       0.68734580       2.29625177       8.42646217       0.08149828       0.82551598       0.04397390       0.07636415
X       -0.85741454       3.25176764       9.93660736      -2.66756579      -1.12661428       0.72818505       1.17105696
H       -0.76726347       5.17601824      11.58319569      -0.74417529      -2.09533637      -0.58426417      -1.18177018
He      -0.89264971       5.24692535       8.43603992       0.24444479      -1.89879789      -1.23872847      -0.67367303
X       -2.55374360       6.20177412      10.03937244      -2.54145713       0.49286816      -1.38496133       1.64548805
H       -2.56688166       8.15825844      11.66636562      -0.84836629      -1.22858900      -1.81707706       0.88234861
He      -2.69562674       7.95914173       8.54735184       0.46627452       2.11152658       0.50082779      -1.23246136
X        4.00784492       0.40879345      10.34790516      -1.69601620      -2.79121224       1.08830311     -11.08113380
H        3.56241226       2.33532572      11.49590683      -0.37521066       2.55235438       1.33367313       4.72697907
He       3.84456611       2.28726125       8.42715836       0.28947745      -0.61107792      -0.28076046       1.85310606
X        2.22771931       3.36724043      10.08463383      -2.52392078      -2.02388194      -0.39028104      -4.50370672
H        1.99189186       5.27647114      11.47074413      -0.77262691       1.09679680      -0.02044538       1.98312996
He       2.09361529       5.24540854       8.50168896       0.19739815       0.77224852      -0.72464568      -1.76216546
X        0.52813208       6.08371830       9.89120197      -2.80333338       0.74101704       3.03677549       2.48244849
H        0.47999880       8.14472485      11.58649540      -0.24320517       2.22584018      -3.03614300       3.87298230
He       0.40007654       7.94915581       8.34930229       0.32113909       0.57348975       0.61544018       2.17569772
X        7.02342463       0.45927322      10.13890553      -2.63767396      -0.85120763       0.00318015      -4.13630129
H        6.87456846       2.27003121      11.59225368      -0.82310753       0.41574094       1.00097251       0.22416948
He       6.82726765       2.27538180       8.32445526       0.08028587       0.38485678      -0.11538262       2.12964058
X        5.31337976       3.26855564      10.04217434      -2.68575678      -0.12913005      -0.25300734      -1.25218403
H        5.16263199       5.10019541      11.61008644      -0.89390370       0.05070937       0.83246069      -0.71115163
He       5.27396631       5.09086275       8.41425419       0.17522424      -0.53594052       0.75968309       1.29489476
X        3.56722331       6.26843596      10.02385902      -2.61577843       1.65063873      -3.08489894       2.19424295
H        3.49383426       8.02193546      11.67554474      -0.91715064       1.20590323       0.21718131      -0.41966591
He       3.65228510       7.92420340       8.61688995       0.54194837      -1.53929063       1.68345982      -3.49702707
27
Lattice="9.46883487701416 0.0 0.0 -4.778930187225342 8.667675971984863 0.0 0.0 0.0 100.0" Properties=species:S:1:pos:R:3:energies:R:1:forces:R:3 original_dataset_index=7 energy=-26.113787459587233 pbc="F F F"
X        0.64726114       0.55703259       9.86209106      -2.47452718       0.47753357      -0.66818270       5.43601501
H        1.02887595       2.34187007      11.45407104      -0.68981480      -2.41050422      -0.09762256       1.19124092
He       0.51858437       2.37667656       8.51901817       0.37441335       1.71800569       0.72986989      -4.16789022
X       -0.74996388       3.45537949       9.98781300      -2.43302824      -2.47903919      -1.24374317       1.34747639
H       -0.98035008       5.12396145      11.60222721      -1.00468423       0.92682909       0.66102577       0.00737072
He      -1.06220722       5.46147966       8.41200733       0.27058704       2.50819801      -1.82993258      -1.04249750
X       -2.42150474       6.10319996       9.97936153      -2.57169314      -2.37449661       2.91283680       1.96489369
H       -2.52727556       8.22883892      11.45232964      -0.76871158      -2.00813804      -1.80208228       0.86560621
He      -2.39245152       8.26156139       8.53960705       0.77515765      -3.15688825      -3.01666235      -4.79537441
X        3.63068342       0.32571560       9.95270252      -2.04124420       6.12235046       5.81570711       4.49915294
H        3.90788460       2.28466606      11.64562511      -0.72429749      -0.63460275      -0.01200470      -1.94086228
He       3.91533470       2.33071852       8.37877464       0.06600107      -0.37837050      -0.32951737       0.97373176
X        2.28686643       3.28962922       9.91266346      -2.30767360       1.97231888       1.28631603       0.35815911
H        2.26850271       5.38849211      11.50858974      -0.83207642      -0.36535831      -1.43839912       0.86189469
He       2.33849144       5.39778471       8.54835796       0.07869776      -0.30166249      -0.50447815      -0.96294432
X        0.56943583       6.18248987      10.01765060      -2.37315388       0.89989313       0.82254036       0.86752578
H        0.68193692       8.22245884      11.48895645      -0.79498483      -1.62480883      -0.63431738       2.13727509
He       0.66440350       8.28348541       8.71850204       0.67445245      -0.62677420      -1.48500661      -4.73493536
X        6.91317320       0.59414572      10.08885193      -2.58452223       2.36617325      -0.27585023      -0.34342988
H        7.00737238       2.38387561      11.57757187      -0.89918709       0.48174255       1.08436232       0.18118207
He       7.03344345       2.31214929       8.42823887       0.15422059      -0.23290369       1.09345014       1.16294204
X        5.42099762       3.36510158      10.04838276      -2.42432774       0.08541823       0.19551190      -1.82520343
H        5.29721737       5.34874868      11.52828884      -0.78168683       2.07086027      -1.31834046       1.85126543
He       5.56214857       5.37441874       8.35304546       0.14702725      -1.48347632      -0.83882712       1.62656958
X        3.92659688       6.28703642      10.11913395      -2.25892973      -1.41113302       2.37804731      -3.85658591
H        3.73278499       8.34196472      11.64695454      -0.88627246       0.84424500      -0.30840071      -1.11607969
He       3.77038670       8.28344822       8.51490498       0.19647104      -0.98541121      -1.17629947      -0.54649858
27
Lattice="10.535907745361328 0.0 0.0 -5.060638904571533 8.446078300476074 0.0 0.0 0.0 100.0" Properties=species:S:1:pos:R:3:energies:R:1:forces:R:3 original_dataset_index=8 energy=-24.63581450524652 pbc="F F F"
X        0.82184613       0.43236625      10.00129414      -2.21128066      -0.00469801      -0.80983756      -3.92258384
H        0.97076589       2.17382860      11.53097630      -0.95545314      -0.20019777       1.36185087      -0.27139359
He       1.12643921       2.25974035       8.28767872       0.03946307      -0.79715005      -0.14351882       1.28170199
X       -0.85632169       3.33771658      10.06549263      -1.72608257       0.32868169      -1.55554462      -2.09825117
H       -0.84727132       5.17241716      11.54481220      -1.05301465       0.67786635       0.76301478       0.56748631
He      -0.79355085       5.07835054       8.40038109      -0.08917049       0.07107007       0.92415701       1.37243943
X       -2.48162985       6.05947113      10.03919983      -2.12027690      -1.36395606      -2.00714829      -2.01733644
H       -2.74201322       7.82257938      11.49181366      -0.77867029       1.25974230       1.09186563       1.30419857
He      -2.63395047       7.82763577       8.43385792       0.19966108       0.24978239       0.51387379       0.69330224
X        4.47528791       0.57961291      10.12497807      -1.64512319      -0.91561174      -3.49076424      -1.94144723
H        4.49864388       2.15634418      11.71232033      -0.63398036       0.08183580       2.36171683      -0.94438500
He       4.36405182       2.13603520       8.38573551      -0.05846376       0.38671896       1.40804198       0.42955539
X        2.67148376       3.14664268       9.91553116      -1.88884586       0.85951213       0.51420670       2.05991634
H        2.75935745       5.19102478      11.65984631      -0.79126231       0.02766383      -0.23897287      -2.57555957