27
Lattice="8.787755012512207 0.0 0.0 -4.82401180267334 8.805902481079102 0.0 0.0 0.0 100.0" Properties=species:S:1:pos:R:3:energies:R:1:forces:R:3 original_dataset_index=0 energy=-24.287567138671875 pbc="F F F"
X        0.71035558       0.53037179      10.29650116       0.65691900       1.93087614      -1.53798342      -8.48738098
H        0.57086313       2.18519044      11.64577293      -1.43817699       1.34206975       2.85339761       3.51139927
He       0.53110027       2.33013844       8.42784977      -1.60368824       0.98227447       0.13369715       2.27831268
X       -0.79099727       3.42366290      10.17206860       0.44700775      -1.99292696      -0.97747779      -3.15537167
H       -0.92815924       5.27920723      11.60668850      -1.87617838      -0.28064123       0.52449590       2.16814375
He      -1.02205467       5.34192705       8.59172153      -1.75727165      -0.47201440      -0.25248614       0.45371300
X       -2.64866638       6.37952185      10.25446033       0.57680637       4.25547504       0.29367545      -6.80618715
H       -2.48190117       8.18818188      11.66461563      -1.76506650      -0.30455258       1.43813622       1.92729652
He      -2.54135728       8.14061260       8.36301899      -1.54240894      -0.68969750       0.10614610       2.12001610
X        3.62723827       0.56855285       9.96269035       0.41686866       0.52137601      -0.56104380       1.28303516
H        3.59805155       2.52907825      11.68065453      -1.48171341      -0.43859112      -1.99916530       0.30868614
He       3.58885431       2.33768010       8.31934547      -1.70016789      -0.97674608      -0.56868351       0.08484540
X        2.21546340       3.38845563      10.09236622       0.57837462      -3.95866919      -0.22728883      -3.35281706
H        1.86511326       5.42860508      11.37500477      -0.96621758       3.35246253      -1.88317084       6.86262846
He       2.02176452       5.38938093       8.44055462      -1.66094935       0.46427292      -0.80629021       0.79011482
X        0.55937755       6.26178646      10.08486652       0.53705865      -3.58016038       2.85394359      -3.22606063
H        0.28130132       8.38331223      11.63110256      -1.78388047      -0.60803443      -1.31354940       0.02278720
He       0.52376252       8.19172192       8.64904118      -1.45554733      -2.48505569      -0.60718757      -3.06867862
X        6.52781868       0.42259172      10.08958435       0.47021303       3.47876120       2.17356706       2.09260058
H        6.39817858       2.36548018      11.66463280      -1.73827374      -0.23770724       0.20626864      -1.02620506
He       6.45281076       2.30451059       8.54030037      -1.71430147       0.01372976       0.60785049       0.48506609
X        4.74777222       3.45345879       9.97385406       0.40201706       5.05706167       1.22079313       0.36924395
H        4.87529135       5.33561325      11.58805656      -1.48547363      -1.57557237      -1.89694130       3.16237855
He       4.86694193       5.32239437       8.40019321      -1.67239702       0.26160929      -0.28833732       0.89588678
X        3.52473783       6.35623884      10.11005116       0.38043553      -2.21364021       1.97316384      -3.62129784
H        3.40530276       8.28072643      11.65188885      -1.50369358      -2.64969110      -1.11381292       2.08775568
He       3.23117065       8.32649326       8.46861076      -1.60786128       0.80373210      -0.35171786       1.84009147
27
Lattice="8.889935493469238 0.0 0.0 -4.505285739898682 7.381402015686035 0.0 0.0 0.0 100.0" Properties=species:S:1:pos:R:3:energies:R:1:forces:R:3 original_dataset_index=1 energy=-24.493019104003906 pbc="F F F"
X        0.83746213       0.38614944       9.98893929      -0.22596206      -0.75636798      -2.09410357       2.03606844
H        0.91834718       2.02887440      11.71575642      -1.33751535      -0.99554050       0.56223595      -1.74634576
He       0.67723882       1.87197948       8.48915291      -1.06122851       0.99621630       2.52000189      -2.07577157
X       -0.65049523       2.89362860      10.04318237      -0.21766502      -1.08958077      -4.65093231       1.77973866
H       -0.83887565       4.47035646      11.65762138      -1.71478724       0.77143288       1.11529446       0.04549769
He      -0.74182242       4.28705502       8.43632126      -1.00583971       0.71487802       3.42466331      -0.31172717
X       -2.26831150       5.23152590       9.95315838      -0.19733617       1.01777112       0.28328624       0.96606213
H       -2.11745906       6.99738789      11.59644985      -1.36374772      -2.21532869      -2.06343484       1.21246266
He      -2.22026753       6.90929413       8.52200222      -1.21643496      -0.14640661       0.02494918      -1.61748981
X        3.70522904       0.33136877      10.11583614      -0.46703348       2.33454490      -0.74280560      -2.46470118
H        3.60120249       2.03842831      11.55071735      -1.27928472       1.10652065       0.36587897       0.07267087
He       3.71762967       1.81565642       8.44899273      -1.14569783      -0.03944962       1.32335806      -1.99206042
X        2.30411744       2.87698579       9.84733963       0.25966907      -1.54662967      -6.93273973       4.53769493
H        2.26516342       4.35466385      11.34157085      -1.01503325       0.71864027       1.78302586       5.78790951
He       2.18412828       4.28951836       8.49101353      -1.00674570      -0.78492910       4.66871309      -5.32275295
X        0.81097460       5.29911280      10.13172054       0.01458712      -2.81925249      -0.17257524      -5.22308350
H        0.91435027       7.05003166      11.56697083      -1.39320433      -1.31800890      -0.74897426       1.03158975
He       0.60780662       6.94528961       8.33700943      -1.15435064       0.87288386      -0.83726043       1.41579711
X        6.74701118       0.41305572       9.86643696      -0.48737621      -0.13743797      -2.62038541       0.34452364
H        6.60796547       1.90929234      11.51447487      -1.20033753       1.30055892       1.99351442       0.40166461
He       6.70190334       2.01657772       8.38583374      -1.26061416       0.90028977       0.97236657      -0.80724710
X        5.18174505       2.60111856       9.92126846      -0.13469575      -0.60111320       4.57656527       0.70646095
H        5.11843824       4.47200918      11.43066311      -1.46328771      -0.21978272      -1.24371040       0.70115799
He       5.21398592       4.48725271       8.28424263      -1.38513672      -0.78124559      -1.36776757       0.89399755
X        3.63890576       5.24707985       9.89217281      -0.17118339       1.86804962       0.87914926      -0.31998682
H        3.68141723       7.01840639      11.48436069      -1.42981029       0.43313676      -1.28273737       0.03384782
He       3.68969393       6.90430069       8.33481121      -1.43296540       0.41614917       0.26442415      -0.08597520
27
Lattice="8.803426742553711 0.0 0.0 -4.484844207763672 7.848316669464111 0.0 0.0 0.0 100.0" Properties=species:S:1:pos:R:3:energies:R:1:forces:R:3 original_dataset_index=2 energy=-23.856903076171875 pbc="F F F"
X        0.69349438       0.43280023       9.96343803       0.46650782      -4.12369108       2.31623387       6.91422796
H        0.53223848       2.26781297      11.70913315      -1.62945724       0.68815011      -0.84612346      -1.82888293
He       0.61193943       2.36478353       8.60849667      -1.08552074       1.22405899      -3.11351323      -6.80339718
X       -0.82932419       3.07678628       9.86407757       0.67447501      -0.99199212       4.23327303       8.23442745
H       -1.02763021       4.83236647      11.67193890      -1.31046963       2.51689076      -1.27525949      -0.14343576
He      -0.96900731       4.93020010       8.29086590      -1.39928722       1.21151030      -0.70980507       1.45961773
X       -2.27257919       5.70042658      10.13614750      -0.19536273      -2.84032440      -1.15575182      -3.43169594
H       -2.41476154       7.37111139      11.58242702      -1.73797071       0.07055782       0.64694166       0.87608606
He      -2.58419847       7.32031298       8.59160137      -1.30628514       1.38892496      -0.76122659      -5.59978342
X        3.37513614       0.43118218       9.88912296       0.50268722       2.85003781      -2.43923831       7.72796726
H        3.63606000       2.04752493      11.66570759      -1.65858340      -1.62872577       0.29660055      -0.23022191
He       3.42203999       1.98935878       8.57883453      -1.13528657       0.69541645       3.69033813      -4.44031096
X        2.05021787       3.15321231      10.02651024       0.06387565       1.23342645      -1.24018180       4.39288855
H        2.16802692       4.84637451      11.69774818      -1.72744012       0.00390926      -0.37894332      -0.84044278
He       1.94907963       4.85117579       8.45338726      -1.48714888       1.79391408      -0.43521804      -0.63327390
X        0.67540419       5.65358543      10.08561420      -0.02610014      -3.33330917       0.34351501      -0.87256628
H        0.44974244       7.33076954      11.52759552      -1.59828568      -0.09003633       1.38857341       0.64030570
He       0.56209791       7.47559881       8.51808548      -1.44202459      -0.92287409      -1.41950440      -2.76171899
X        6.46390820       0.37272125       9.98610592       0.43225524      -0.36847043       2.28865695       6.35464287
H        6.58201313       2.26189542      11.44696045      -1.58406186       0.28771552      -1.80778635       3.22006845
He       6.45298052       2.28596115       8.66536236      -1.07345283      -0.55319512      -2.99664426      -7.41151381
X        4.99601889       2.91602945      10.13269806       0.10259490      -1.27596366       2.39134359      -2.71779394
H        4.97068071       4.76478004      11.51292324      -1.43743062       1.07677436      -0.54566902       2.59665227
He       4.99189854       4.59638453       8.33228874      -1.38848078       0.95431882       0.11135444       1.21655238
X        3.64679933       5.55154562       9.96142769      -0.03886598      -2.81476665       1.71581316       1.56304193
H        3.47953081       7.35927486      11.61381149      -1.70792150       0.56771260      -0.04544244      -0.88947749
He       3.36472344       7.39038277       8.65774441      -1.12985933       2.38002849      -0.25233600      -6.59196663
27
Lattice="8.885371208190918 0.0 0.0 -4.824143886566162 8.598649978637695 0.0 0.0 0.0 100.0" Properties=species:S:1:pos:R:3:energies:R:1:forces:R:3 original_dataset_index=3 energy=-27.84427833557129 pbc="F F F"
X        0.73268151       0.37531453      10.01899433       0.33994448      -0.22865573       1.59746814      -1.81274533
H        0.54727137       2.43272138      11.45022678      -1.70499337      -0.53294617      -0.28321370       2.11677480
He       0.58617508       2.44519567       8.55153561      -1.54671669       0.35499322      -0.04378241      -0.49445558
X       -0.97468442       3.53997302       9.98134422       0.36922777      -0.06609908       0.38603598       0.30685696
H       -0.92892921       5.37269258      11.77264690      -1.62274218      -0.77251911      -0.30418706      -2.67326403
He      -1.06249321       5.49964428       8.33220291      -1.61474848      -1.04493487      -2.03538752      -0.39112324
X       -2.64061594       6.28690958       9.95225525       0.28726959       2.99449229       1.02299690       1.15375686
H       -2.55351186       8.13674164      11.53588200      -1.93482101      -0.03652845      -0.49311268      -0.23757502
He      -2.57279849       8.11977959       8.29428101      -1.77349782      -0.89697504      -0.27235606       0.99539864
X        3.60329533       0.57695293       9.87209702       0.30292392       1.76988184      -0.34393385       1.29525089
H        3.59993935       2.30367661      11.62325954      -1.85675263       0.10063136       0.63095164      -1.26804793
He       3.43323660       2.43472505       8.37018108      -1.80969846       0.12795158       0.57390440       0.68236989
X        2.05822611       3.52480197      10.15065670       0.44226962       0.86426556      -1.65695250      -4.27478838
H        1.88198388       5.21664429      11.62241936      -1.81169081       0.16836445       1.17492938      -0.19930717
He       1.99111402       5.42726946       8.29039383      -1.57742274      -0.04288696      -1.99254632       0.11490713
X        0.45454717       6.10582924       9.81134415       0.55833340       0.25932148       3.64691567       3.90613389
H        0.39352068       8.22333622      11.51916981      -1.65096533      -0.50783205      -0.80005819      -1.84277141
He       0.36198559       8.08044624       8.25658035      -1.78286445      -0.05719500       0.32005981       1.28425968
X        6.65922451       0.58985186       9.87481689       0.52300185       0.34525990       0.43425488       0.39126369
H        6.42086792       2.51052809      11.66519070      -1.71612322       0.74527192      -0.78756636      -2.05684280
He       6.56591654       2.55401659       8.22735500      -1.80576825       0.00243455      -0.86130428       1.38668478
X        5.05226946       3.40007281       9.88411140       0.32008097      -1.30670714       0.61682075       1.75203097
H        4.92921782       5.31145668      11.66578865      -1.71571779      -0.60814339      -0.94855016      -1.83115470
He       4.91244841       5.27836943       8.37745762      -1.76552200      -0.35266727      -0.67589539      -0.43251324
X        3.41172957       6.18289900       9.92751217       0.26166153      -0.27089760       1.61441636       2.15471792
H        3.30147171       8.16589069      11.62069416      -1.79923677      -0.63170260      -0.83082789      -1.59390223
He       3.38441229       8.02363873       8.28260422      -1.75970984      -0.37617788       0.31092080       1.56808531
27
Lattice="10.056636810302734 0.0 0.0 -4.986191272735596 7.966787338256836 0.0 0.0 0.0 100.0" Properties=species:S:1:pos:R:3:energies:R:1:forces:R:3 original_dataset_index=4 energy=-26.078702926635742 pbc="F F F"
X        0.60029978       0.53043735       9.92870712       0.84885335       3.54618168      -1.28380942       3.12061715
H        0.90145582       2.34476018      11.69693565      -1.86377692       0.72310293      -0.53063262      -1.40012670
He       0.93621355       2.26145005       8.58191586      -1.57400155      -0.65877759       1.26063824      -2.40220118
X       -0.70072132       3.12479329      10.13368130       0.47995386      -0.64694470      -2.04714513      -4.73416519
H       -0.72852087       4.80815268      11.44987488      -1.59056532      -0.28316653       3.11310768       2.15037823
He      -0.61584836       4.73817778       8.29858589      -1.69660938      -0.62619287       0.91076422       1.30903804
X       -2.46613979       5.99676085      10.02280140       0.72722065      -0.26904529      -4.68365479      -2.32384229
H       -2.49768138       7.40055752      11.70141315      -1.33721817       0.11327777       3.15400624      -0.41480669
He      -2.41917229       7.69864941       8.32130718      -1.75187993      -0.90586483       0.43633431       1.24535656
X        4.09048271       0.61885828       9.97147942       0.53670949       0.70427549      -2.59619641       0.42582971
H        4.35861206       2.30845690      11.57305908      -1.97482145      -1.64754546       0.11912508       0.15324616
He       4.15753460       2.31161261       8.36528683      -1.94424284       0.05016206       0.25629425      -0.10612219
X        2.67567301       3.21969271       9.95749092       0.51483774      -1.29416823      -1.70078588       3.83832741
H        2.66446877       5.04016733      11.49351692      -1.88409555      -0.45450163      -0.08659582      -0.29856244
He       2.48076510       4.92528248       8.51570129      -1.65438914       0.68198699       0.03890710      -4.03187466
X        0.87394792       5.76673841       9.90525150       0.47340795      -0.17308274      -1.61139548       2.68543863
H        0.89617813       7.54098654      11.42624092      -1.88833559      -0.99448669       0.04028597       1.80292249
He       0.91180009       7.46040773       8.48614311      -1.71853971      -0.44042236       1.90649700      -1.42150116
X        7.56764555       0.26813912      10.04242516       0.63441813       0.83901209       2.68492532      -2.77830219
H        7.68743038       2.29587293      11.56070518      -1.68867671      -1.35478175      -0.68317503      -0.38550374
He       7.66002989       2.24240875       8.30598259      -1.54254258      -0.29317570      -0.34231147       2.80830026
X        5.70427561       3.13885736       9.95573521       0.65417641       3.80472517      -0.59528083       0.47453332
H        5.95678759       4.97121191      11.62995720      -1.82396746      -0.37082699      -0.00347061      -2.04715300
He       5.77829647       4.79743147       8.44540405      -1.66647422       1.72722507       1.28163636      -1.53829050
X        4.26824808       5.70848799       9.83503056       0.48874399      -0.30845746       0.96732700       5.19213676
H        4.28287649       7.54782486      11.54809952      -1.93724668      -0.46409839      -0.98981833      -0.29331574
He       4.25786066       7.45338297       8.37280750      -1.89964199      -1.00440955       0.98442394      -1.03035700
27
Lattice="9.529006004333496 0.0 0.0 -4.49796724319458 8.255024909973145 0.0 0.0 0.0 100.0" Properties=species:S:1:pos:R:3:energies:R:1:forces:R:3 original_dataset_index=5 energy=-26.309228897094727 pbc="F F F"
X        0.88797849       0.39089411      10.07865620       0.32262695      -0.33455735      -0.49137580       0.34297568
H        0.80942613       2.09447455      11.73595428      -1.97264898       0.59493065       0.46840197       0.23784605
He       0.96138901       2.40977979       8.72294140      -1.68131077       0.45561671      -1.16724992      -2.30041623
X       -0.68063879       3.05240345      10.15581226       0.38241589      -1.05935884       1.91884947      -0.79075599
H       -0.54927379       4.91344023      11.76511955      -1.80742311       0.25705904       0.42170402      -2.44510937
He      -0.74517965       5.00548077       8.53793335      -1.70807946       2.13083434      -1.43070292      -1.24349618
X       -2.12977481       5.97701359       9.94038773       0.71605736      -1.11584330      -1.81365764       5.90570879
H       -1.93438339       7.86413288      11.70112896      -1.82519352      -0.45144036      -0.60532016      -1.59408474
He      -2.07447505       7.65213060       8.52795029      -1.63958621       0.90408409       2.51365614      -1.19837296
X        4.13889122       0.60962576      10.12649155       0.53179109      -2.37258506      -4.68029404      -3.39424062
H        3.99854231       2.20476699      11.57984829      -1.59342289       1.83160198       0.47072431       5.75139046
He       4.25661182       2.28235888       8.53980160      -1.57694781      -2.22186637       0.06684422      -0.01684884
X        2.57532716       3.11782289      10.25365162       0.55948716      -1.10799491      -0.98175603      -7.15187073
H        2.73039746       4.86884832      11.43218422      -1.40782714      -0.22649808       2.63939691       5.11725855
He       2.74204183       4.98969793       8.40544510      -1.75318575       0.15767196      -0.67657197       1.20842993
X        1.13471496       5.74189663       9.98045063       0.60771888      -1.85373425       0.72404975       1.15349019
H        0.95862561       7.66734552      11.55265713      -1.77342379       1.50743783      -0.15904501       2.10941172
He       1.29087245       7.76219177       8.66605186      -1.60995579      -0.91578144       0.21816708      -1.71472216
X        7.22912979       0.44860938      10.20809937       0.55442649       1.08421230      -0.53186584      -2.03280973
H        7.25659323       2.36727381      11.70273209      -1.82834637       0.08343863      -1.65150058       1.33995438
He       7.27084398       2.13386369       8.23488045      -1.46450019       0.33875582       0.00360810       3.25432396
X        5.66393900       2.89726090      10.15590191       0.39707828       2.05769181       3.86522722      -2.95917797
H        5.81349373       4.87654305      11.61130333      -1.77445662       0.02666833       0.66239309      -0.73821676
He       5.80485392       4.75152540       8.45485878      -1.71120143      -0.11165479       0.81122589       1.27981520
X        4.30801392       6.00064182      10.04367733       0.35780242       0.36485666      -3.91459298      -2.29600501
H        4.33290863       7.62922573      11.63138294      -1.97925258       0.11541090       1.24108112       0.93138337
He       4.35201883       7.58975220       8.39977551      -1.63187170      -0.13895564       2.07860422       1.24413812
27
Lattice="9.027426719665527 0.0 0.0 -4.360400676727295 7.873333930969238 0.0 0.0 0.0 100.0" Properties=species:S:1:pos:R:3:energies:R:1:forces:R:3 original_dataset_index=6 energy=-27.642831802368164 pbc="F F F"
X        0.66218257       0.40299338       9.95745754       0.16457042      -0.43350479       0.06730604       0.95586336
H        0.62941569       2.20132995      11.56337166      -1.59972227       2.47132850      -1.37622821       1.02688360
He       0.74721277       2.29600525       8.50907993      -1.38135624      -1.01392877      -1.87936306      -1.58416808
X       -0.73454732       3.04051518      10.15438557      -0.10626575      -2.19474030       0.74346948      -2.89381719
H       -0.82745850       4.75987816      11.67148209      -1.78282380       1.25568974       0.53748637      -0.11196653
He      -0.74933600       4.74472523       8.45696449      -1.47618186       0.91874498      -0.03920543       1.09563720
X       -2.19955349       5.64272690       9.99404240      -0.06682143      -1.22565591      -0.89975536       1.38937414
H       -2.22995424       7.31596613      11.55827141      -1.81645238      -0.78920132       0.65006220       1.61353922
He      -2.14958286       7.31912279       8.46725559      -1.60190392      -0.15537263       1.16284966      -0.12449268
X        3.62850475       0.40844053      10.19627094       0.05244111      -0.46451998       1.12289560      -4.36896229
H        3.83710885       2.17751288      11.74690056      -1.65363526      -1.48134196       0.00575118      -1.12545419
He       3.58954239       2.04346013       8.23588276      -1.41514194       1.59116971      -0.24395150       1.74124372
X        2.27417850       2.91618848       9.89301300       0.08952041       0.12402041       2.40025806       4.13131332
H        2.18838644       4.89784431      11.46171761      -1.35159504       1.90017271      -2.68465781       2.66663241
He       2.11914802       4.68984032       8.36921501      -1.65582013       1.24130285       0.63846332       0.62277365
X        0.79970455       5.66583347      10.10379314       0.04243675      -3.52965617       0.45764086      -2.93763113
H        0.74720466       7.49077225      11.58408451      -1.60367465       2.04193974      -1.04920971       1.84121716
He       0.65818882       7.37855244       8.57836723      -1.46965885       1.55052149       0.46262738      -0.57479835
X        6.82976675       0.38079584      10.00804520      -0.03941388      -4.67322350       1.09963763       1.52530205
H        6.64905930       2.17763019      11.68253613      -1.59072566       1.25869906      -0.76538527      -0.99926698
He       7.04452133       1.98176396       8.37174320      -1.35277176      -1.76675153       1.62166202       1.15893257
X        5.24779701       2.96656513      10.05334187       0.10863570       0.15437202       0.10241290      -2.01017237
H        5.29096317       4.68459463      11.76411819      -1.61908078      -0.46348399       0.91670340      -2.59654450
He       5.46802902       4.72337818       8.35805607      -1.65749061      -1.83041060      -0.06081789       1.25398088
X        3.72174191       5.65117836       9.97510529       0.28387538       1.93612504      -0.11225189      -0.41420129
H        3.77536750       7.49253798      11.69443703      -1.61637032       1.43248618      -1.40757799      -1.24245667
He       3.68622351       7.42406130       8.36736679      -1.52740490       2.14521790      -1.47082174      -0.03875955
27
Lattice="9.847513198852539 0.0 0.0 -4.77540397644043 7.781859397888184 0.0 0.0 0.0 100.0" Properties=species:S:1:pos:R:3:energies:R:1:forces:R:3 original_dataset_index=7 energy=-25.189809799194336 pbc="F F F"
X        1.13450444       0.43277752       9.88190937       0.63634896      -2.28002262       0.05080070       2.96442389
H        1.00971866       2.27186275      11.71496677      -1.68000078       0.67218935      -0.64161551      -2.50678682
He       0.99505085       2.18407202       8.31364441      -1.89648807       0.42888820      -0.50950229      -1.39268577
X       -0.42997789       2.99845839       9.91032410       0.40319255      -2.66865635       1.16864383       1.42152417
H       -0.65528208       5.02531815      11.48599529      -1.39622164      -1.54030371      -2.76753449       2.06648517
He      -0.73041368       4.74657202       8.31975460      -1.68484032       0.17927150       0.03198229       1.12183690
X       -2.45913672       5.55372286       9.89502144       0.40353456       3.76390314       2.23810124      -1.99453306
H       -2.06840920       7.30769873      11.57659626      -1.82613254      -0.34500828       0.64976698      -1.54954863
He      -2.09433365       7.39037371       8.41285896      -1.73147202      -0.45167983      -0.58230275      -2.22599196
X        4.30772972       0.40322515       9.83816528       0.38061920       0.17937997       1.07282162       2.93710470
H        4.51549530       2.21961284      11.49554634      -1.70084965      -1.71588349      -0.18481702      -0.34197050
He       4.51983833       2.28960490       8.29640102      -1.80784893      -0.68667632      -0.34830597       0.52566600
X        2.62443423       3.00798392       9.74389839       0.77462518       1.89991987      -3.17151618       6.06525040
H        2.69118547       4.63829613      11.56981945      -1.77989745      -0.06783576       0.56827348      -1.30856240
He       2.68062210       4.62906790       8.44887543      -1.31130123      -1.74796343       3.47322154      -3.32005429
X        0.91253358       5.57468224      10.11069012       0.39766961       2.80580783      -0.77689332      -4.91123295
H        1.10825288       7.35627556      11.49809933      -1.85228801      -0.03777412       0.93679446       0.84014189
He       0.98603839       7.18345642       8.35894012      -1.59538031       1.46607816       0.54896432       0.63819176
X        7.68564510       0.39148492      10.06830597       0.68541354      -3.12650156      -2.94168878      -3.41238785
H        7.60751820       2.10385227      11.31704998      -1.44450140       1.51110566       2.61855221       5.41146183
He       7.58053875       1.99671721       8.54200649      -1.47395372       0.16391994       2.21468735      -1.63816428
X        5.97838402       3.22257805      10.02669430       0.57618552      -0.67494506      -3.12832975      -5.73991728
H        5.80489540       4.96767139      11.28100395      -1.41653085       0.12798423      -0.25333402       5.88237810
He       5.84072924       4.93135786       8.28503227      -1.75723839       0.04149358      -0.87268317      -0.50933188
X        4.22952938       5.65376663       9.82939148       0.23800167      -0.38142675      -2.08223176       2.25744963
H        4.35171747       7.22013760      11.57330990      -1.71469867       1.27643633       1.29692268      -0.31854865
He       4.26456881       7.32876253       8.39552307      -1.61575878       1.20829999       1.39122331      -0.96219873
27
Lattice="9.385238647460938 0.0 0.0 -4.6111931800842285 8.04297161102295 0.0 0.0 0.0 100.0" Properties=species:S:1:pos:R:3:energies:R:1:forces:R:3 original_dataset_index=8 energy=-27.515596389770508 pbc="F F F"
X        0.75996596       0.31087476      10.09572220       0.26707709      -0.01888395       2.04153633      -1.84834743
H        0.71501815       2.16553116      11.58703232      -1.70377970       1.82910168       0.04721790      -0.48215529
He       0.99570155       2.34882689       8.44525623      -1.58049750      -0.12302472      -2.27930808      -0.44543001
X       -0.62315357       3.08378768       9.94015503       0.23177116      -1.75128317      -0.09269950       1.21729755
H       -0.80275798       4.82246780      11.63353443      -1.83520222       0.24966671       0.61629307      -1.59218633
He      -0.65084004       4.84917736       8.48981953      -1.61674571      -2.02802658       0.96659279      -0.94158596
X       -2.47103858       5.81458902      10.10350227       0.28856471       3.03899193      -1.01897621      -2.98984456
H       -2.23136020       7.58851099      11.47920990      -1.87870169      -0.88768029      -0.23452936       3.26351094
He      -2.24121857       7.62053347       8.48474789      -1.66201830      -2.13949990      -1.09590781      -1.75077522
X        3.74217057       0.39023823       9.92333031       0.71698529       4.61883974      -0.49793735       5.39913034
H        3.98218584       2.18697357      11.72466373      -1.89195657      -0.06675509      -0.21059367      -1.72973704
He       4.05353642       2.11514664       8.69336224      -1.35874581       0.39735135       1.76258755      -6.20597792
X        2.53909850       3.14772081       9.94492531       0.53092569      -2.49385810      -1.42559826       5.92256403
H        2.40738130       4.80296373      11.60542774      -1.79997277      -1.08444655       0.71096087      -0.82597393