27
Lattice="9.811129067365956 0.0 0.0 -4.528777932979856 8.422697326268596 0.0 0.0 0.0 100.0" Properties=species:S:1:pos:R:3:atom_types:I:1:MACE_forces:R:3 MACE_energy=-26.58257838968133 pbc="T T T"
Mo       0.83472988       0.29282983      10.07725889        0      -0.36568333       2.87124122       2.06876653
S        0.87171097       2.34922678      11.64810110        1       0.10680690      -0.92450001      -0.77964576
S        0.86545637       2.26451945       8.18193614        2       0.06377763       0.08195513       3.13713346
Mo      -0.77480645       3.16883379      10.12756251        0       1.84474930       1.93508526      -2.85862161
S       -0.62070402       5.19333476      11.81220107        1      -0.14152518      -0.79638321      -1.86634048
S       -0.51218607       5.05976212       8.40774026        2      -0.13574064      -0.00495466       2.30321268
Mo      -2.18696150       6.01182918      10.01462170        0      -0.03097514      -0.95176086       1.16431401
S       -1.92230433       7.88123779      11.57541339        1      -1.56023970      -0.51741194       1.10375041
S       -2.15987788       7.89304941       8.62920590        2       0.35085705      -0.55375080      -3.23159149
Mo       4.02889600       0.32255853      10.04670311        0       1.44180958       1.68645285      -1.01443786
S        4.12432297       2.25078485      11.55626207        1      -0.71654866      -0.19862075       0.22612067
S        4.18692386       2.16217760       8.42734290        2      -0.46792962       0.41761942       1.54503888
Mo       2.42883723       3.27767158      10.02679829        0       1.28993450      -1.70918296      -0.60129974
S        2.79050684       5.17031883      11.55550170        1      -0.12202981      -0.39525154       0.70777256
S        2.85467457       4.96361012       8.50356850        2      -0.84576365       1.61170977       0.18444844
Mo       1.02212048       6.04715121      10.20094681        0       0.54401305      -0.31584269      -2.51332792
S        1.05539885       8.00459999      11.58764983        1       1.40442193      -0.11027947       0.06277922
S        1.29158020       7.83793049       8.53726875        2      -1.62974760      -0.95080118      -1.73592905
Mo       7.37255135       0.37677875       9.85935665        0       0.08205300       2.14419715       5.24412169
S        7.59042513       2.22612066      11.57322649        1      -1.77559650      -1.23515962       0.29953553
S        7.52220050       2.40506290       8.32233438        2      -0.92660928      -0.44706625       1.98586365
Mo       5.79919160       3.11027214      10.10192701        0       0.89976559       1.65245602      -2.00117517
S        6.10283035       5.16892565      11.81806420        1      -0.53883269      -0.44514764      -2.64649459
S        5.77532603       5.12753250       8.38165737        2       1.65158232      -0.77146958       1.61200136
Mo       4.49017506       6.13691617      10.04595844        0      -1.11696914      -0.54829596       0.34083632
S        4.36249107       7.85818458      11.65229536        1       0.18137446       0.64551301      -1.26071930
S        4.50332786       8.12986554       8.47154498        2       0.51304566      -2.17035070      -1.47611243
27
Lattice="9.261324002253584 0.0 0.0 -4.267256908602364 7.427683724371399 0.0 0.0 0.0 100.0" Properties=species:S:1:pos:R:3:atom_types:I:1:MACE_forces:R:3 MACE_energy=-22.391684187118095 pbc="T T T"
Mo       0.60360031       0.37843622       9.81891220        0       5.42447915      -0.63167302       5.51996341
S        0.91911787       2.02201376      11.54952488        1       0.66330196       0.17468518      -1.47820642
S        1.03128733       1.97053098       8.50017746        2      -2.72866389       0.59460574      -7.62151522
Mo      -0.51454157       2.93493210       9.88790629        0      -1.05376419      -2.16491840       3.18202782
S       -0.52815942       4.56262461      11.50951967        1       0.91359372      -0.16842168       1.18517183
S       -0.38908304       4.44274325       8.21565662        2       0.24770932       1.42649550       1.01410231
Mo      -1.94773886       5.20902613       9.90304763        0      -1.01134823       2.50428761      -2.03514393
S       -1.78727161       7.04925028      11.81041823        1      -0.06201916       0.01626597      -2.78492334
S       -1.95886542       6.96653184       8.38280685        2       0.90089086       0.68739663       0.52423680
Mo       4.09290600       0.58632424       9.93478340        0      -2.86093063      -6.29015573      -0.75829742
S        4.10207286       2.17888762      11.41976817        1      -1.39344400       1.04105970       1.07923087
S        4.12575407       2.00502849       8.18958136        2      -1.11885623       0.50387611      -0.77250012
Mo       2.47131578       2.79216972       9.73142788        0       2.49639202       0.70868461       6.12580540
S        2.59809404       4.47816967      11.43465205        1       1.72320746       0.01439431      -0.21706602
S        2.48775740       4.50360497       8.22261187        2       0.87625816       0.81526402       0.65671193
Mo       1.10853695       5.39278932      10.06683599        0      -1.19499906      -5.28184644      -4.19478583
S        1.17037945       6.91255870      11.45561228        1       0.93318174       4.01494584       2.85051729
S        1.13867979       6.71359675       8.36565210        2       0.67552712       4.34736989      -0.33798306
Mo       7.04564300       0.53554254       9.97141935        0      -0.35489660      -7.41868892      -3.28794076
S        7.07759919       1.85945807      11.53759074        1       0.48386992       4.22347266       1.06298172
S        7.05558966       2.15078320       8.46797583        2       1.83752093      -0.14930833      -3.97223237
Mo       5.54956131       2.72385912       9.82791050        0       0.95352082       3.76915968       2.03683803
S        5.77418176       4.48675121      11.30256241        1      -0.52803361      -0.49318106       1.77199943
S        5.54778962       4.52775295       8.27774083        2       3.70260043      -1.91458817      -2.01233564
Mo       4.33773466       5.34816826       9.70010608        0      -5.66196698      -0.40227649       4.66770209
S        4.25942646       6.99261080      11.46685738        1      -0.76049236      -1.03383956      -0.37543497
S        4.42070130       6.99663114       8.24166520        2      -3.10263868       1.10693434      -1.82892382
27
Lattice="8.913963086677777 0.0 0.0 -4.676675077573148 8.108978736172254 0.0 0.0 0.0 100.0" Properties=species:S:1:pos:R:3:atom_types:I:1:MACE_forces:R:3 MACE_energy=-26.101594806787464 pbc="T T T"
Mo       0.77384342       0.45631468      10.05185989        0       1.41139061      -0.59230594      -0.94069883
S        0.79559527       2.34602227      11.55108508        1      -2.97893060      -2.69171779       2.97109420
S        0.89530419       2.10836175       8.55839223        2      -4.48303409      -0.81398786      -4.01283026
Mo      -0.74814446       3.14199549      10.08836970        0      -0.88015225       0.96979177      -3.71910362
S       -0.90358615       5.06544777      11.61182393        1      -0.69615632      -1.71707250      -0.02680653
S       -0.93922774       5.04845330       8.35510217        2       0.68146928      -1.76412309       1.01907204
Mo      -2.43624316       5.68495751       9.93769163        0       1.29999487       3.16386425      -0.36435332
S       -2.44883770       7.56626636      11.52970940        1      -0.31023754      -0.59030326       1.87303677
S       -2.32393257       7.60288581       8.54413969        2      -0.00554178       0.37702099      -0.14135383
Mo       3.82342786       0.44048259      10.24693573        0      -3.99796613       1.91875274      -9.07999295
S        3.47948259       2.26577253      11.61064462        1       1.40508959       0.52973948       0.55978415
S        3.80905766       2.14922335       8.35842262        2      -2.04641537      -0.32353044       1.33141228
Mo       1.98769789       3.01720090       9.97900785        0       7.57263181       4.26973182       2.20256066
S        1.98765599       4.77270431      11.75634869        1       0.57153221       1.12632865      -2.24105661
S        1.88532548       4.96774717       8.63409406        2       0.74606913      -0.84061283      -3.76935003
Mo       0.48507380       5.89708844      10.07117199        0       0.88327493       1.39630599      -0.12135497
S        0.34413246       7.72039413      11.57887258        1       4.55668216      -2.06294077       4.71123464
S        0.56971812       7.69740769       8.24365089        2      -0.02071199      -0.88279062       2.36576956
Mo       6.69056308       0.38858728      10.02807031        0      -0.67447852      -0.02830426      -2.06183254
S        6.67024370       2.20652142      11.49012605        1      -1.00933759       0.30585418       1.79657917
S        6.50618132       2.12583401       8.47489157        2       1.68226791       1.09438824      -0.38767117
Mo       5.01607422       3.24278835       9.93038932        0       1.03877920      -1.61469357       1.22558806
S        5.14188144       4.92713783      11.45623784        1      -2.01613684      -0.30361643       1.38648154
S        4.98768058       4.98143813       8.26005169        2      -0.42182910      -0.65409522       0.67926896
Mo       3.54682847       5.83047350       9.93722543        0      -0.19957958      -0.72969902       1.17218736
S        3.56827725       7.52770009      11.39132012        1      -0.90459428       0.53350490       4.57471327
S        3.63988668       7.68411251       8.46053296        2      -1.20407974      -0.07548942      -1.00237800
27
Lattice="9.351681539757159 0.0 0.0 -5.103549276780913 8.335490416920987 0.0 0.0 0.0 100.0" Properties=species:S:1:pos:R:3:atom_types:I:1:MACE_forces:R:3 MACE_energy=-28.268216857984445 pbc="T T T"
Mo       0.67860571       0.50587828      10.02767719        0      -2.13519692      -3.16314777       0.46831872
S        0.48191553       2.14093844      11.52878947        1      -0.12996454       1.90430254       0.48753897
S        0.45482932       2.06853211       8.40332939        2       0.32551894       1.68324493      -1.26721815
Mo      -0.97568244       3.24671399       9.87284982        0      -0.82696324      -0.48676292       3.41734499
S       -1.21068927       5.06972986      11.67529759        1      -0.65087260      -0.72233612      -1.50314860
S       -1.19102642       5.13815891       8.48909646        2      -0.08628025      -0.81098801      -3.24838395
Mo      -2.71062791       6.05135716       9.92020954        0      -1.07325726       0.93267096       3.63094597
S       -2.86302385       7.91716726      11.67059744        1       0.39140747      -0.52965476      -1.87127524
S       -3.14044148       7.94637911       8.38085729        2       2.60694186      -0.67119601       0.22404350
Mo       3.89108319       0.38910944      10.00223688        0      -3.67060379       1.94414273       2.52991642
S        3.76146140       2.41960171      11.56919341        1      -0.94235546      -1.03020133      -0.91961825
S        3.53607746       2.31529212       8.48666315        2       1.48284554      -0.31722494      -0.73897601
Mo       1.92767427       3.11113612       9.93457466        0       1.52965994       2.31568667       1.59770821
S        2.01595602       5.09241049      11.59316925        1      -0.84651531      -1.27860375      -0.86755833
S        1.89274200       5.27216758       8.38491873        2       0.02853072      -1.82854372       0.40695427
Mo       0.27169347       5.78582645      10.02324356        0       2.37409420       4.11684012       1.83378462
S        0.27069377       7.85884269      11.68685347        1       0.73446202      -0.69357022      -2.20387181
S        0.11628816       7.86493905       8.49842944        2       1.75995092      -1.52571831      -1.44056399
Mo       6.93338906       0.46458499       9.87283298        0      -1.41339089       0.56589246       2.71956654
S        6.93543054       2.33217004      11.59029922        1      -0.94905293      -0.19427087      -1.81747651
S        6.79729030       2.37511763       8.40148897        2      -0.70504934      -0.12149019      -0.44411752
Mo       5.21956530       3.36631545      10.00203956        0       0.28472108      -3.10274165      -1.77672105
S        5.09961222       4.97066843      11.44069944        1       0.51098526       2.34110940       2.52185093
S        5.08269129       5.14315178       8.45591950        2      -0.10945552      -0.38378905      -1.19410371
Mo       3.51464808       5.95339082      10.00440740        0      -0.67257430       1.71609838      -0.77970711
S        3.22616648       7.87172370      11.57604446        1       1.29124574      -0.37368808      -1.05971733
S        3.31161653       7.82839268       8.31314551        2       0.89116864      -0.28606050       1.29448440
27
Lattice="10.797208990133319 0.0 0.0 -4.724135241080002 7.946281536751546 0.0 0.0 0.0 100.0" Properties=species:S:1:pos:R:3:atom_types:I:1:MACE_forces:R:3 MACE_energy=-22.80765256928352 pbc="T T T"
Mo       0.89635946       0.49482745      10.00132728        0       0.62874504      -1.25694392       0.30308443
S        1.01863353       2.21678577      11.75346920        1      -0.40565439       0.37921763      -1.96506038
S        1.05528250       2.17410873       8.37143352        2       0.11553748       0.89558851       0.68178910
Mo      -0.71697247       2.96667893       9.97777101        0      -0.21928803      -0.58291652       2.61846168
S       -0.60586919       4.88332281      11.58542036        1      -0.13838880       0.13830548      -1.67008686
S       -0.53394250       4.66651270       8.48186197        2      -0.16025715       2.10783431       0.38478407
Mo      -2.44063999       5.89234251       9.90943331        0       1.34395010      -3.36426993       1.18931230
S       -2.11487740       7.55680030      11.50913808        1      -0.03989678       0.52147826       0.31010022
S       -1.92251324       7.57371088       8.41393133        2      -0.84956036       0.91995366      -0.34300149
Mo       4.45161908       0.37257065      10.01326144        0       1.24800926       0.56581183       0.08636615
S        4.72418599       2.34870715      11.60035398        1      -0.96650861      -0.66219474      -1.29509263
S        4.55180531       2.32586026       8.38360629        2       1.17895613      -1.49221411       0.41304353
Mo       2.98406892       3.16847877       9.84058815        0      -0.83394650      -2.50489950       3.25983602
S        3.21960139       4.80168835      11.69343780        1      -0.00839975       0.86198092      -2.31903905
S        3.15023472       4.70387752       8.25871821        2      -0.36751240       2.89792915       0.37109705
Mo       1.36554570       5.65560074      10.09983886        0       0.17054749      -0.86793463      -1.72684090
S        1.53905360       7.37906636      11.68450851        1      -0.32286304       1.28350667      -1.54096030
S        1.75011745       7.54186668       8.24862606        2      -0.60678244      -0.22361251       2.21558779
Mo       8.11897102       0.54141957       9.89197639        0       0.14206081      -4.10697175       3.29304494
S        8.11973114       2.18748323      11.69419361        1       0.09946792       0.69448714      -2.11009750
S        8.16635781       2.19737563       8.52999809        2       0.19634724       2.39562670      -1.80662541
Mo       6.33095969       3.08814429       9.99717467        0       1.52242156      -0.16351070      -0.23401179
S        6.66630372       4.88119576      11.57766581        1      -0.15031484       0.68666938      -1.51533499
S        6.84745714       4.88303345       8.24653140        2      -0.94324000      -0.04105110       1.32235133
Mo       4.94033747       5.64073299       9.84764845        0       0.34614928      -1.30307321       2.18684421
S        5.19438392       7.47565171      11.47969085        1      -0.47148148       0.34478028      -0.84016449
S        5.25336800       7.42311681       8.47724725        2      -0.50809774       1.87642271      -1.26938702
27
Lattice="9.458852624701752 0.0 0.0 -4.708427659524038 8.432708997710982 0.0 0.0 0.0 100.0" Properties=species:S:1:pos:R:3:atom_types:I:1:MACE_forces:R:3 MACE_energy=-28.561471372869878 pbc="T T T"
Mo       0.74791242       0.33533146       9.98592165        0      -0.39295025       0.58647864       1.30085871
S        0.96857043       2.14405042      11.57516307        1      -0.89319976       1.12746164      -0.27189410
S        0.62332231       2.30962291       8.63421850        2       1.17259076       0.02678956      -3.31945310
Mo      -0.76474067       3.35159876      10.07071932        0      -1.65834922      -1.38095538       1.37729125
S       -0.74338069       5.26246576      11.58263745        1       0.47208628      -1.01131967      -0.21372575
S       -0.94357163       5.14242536       8.39745396        2       2.03223575      -1.69989511      -1.32467782
Mo      -2.27457597       5.92007452       9.94678092        0      -3.29150550       2.85318830       2.49728977
S       -2.29434686       8.07487398      11.49853407        1      -1.58555703      -2.78739474       2.10676927
S       -2.46772857       7.80063631       8.45688583        2       0.98913012       0.33390347      -0.19195189
Mo       3.83385931       0.35000309      10.06576572        0       2.22355513       1.91415573      -2.94176724
S        3.89961158       2.37261319      11.52928196        1       0.27172327      -0.17072505      -0.33138041
S        3.81288998       2.19514147       8.43514654        2       0.88993437       0.32775524       0.31962159
Mo       2.38088874       3.31683369       9.93483722        0      -0.22957497      -1.42129863       1.34991059
S        2.38247877       5.14624011      11.40544666        1      -0.88188524      -0.49076147       1.94754200
S        2.40849913       5.10627646       8.42321893        2      -0.07398715      -0.37422318      -2.26073657
Mo       0.76684432       5.88362862       9.85292545        0       0.05130803       2.72868299       1.53620159
S        0.86438400       8.09737375      11.69363236        1      -0.43839088      -0.49143211      -1.63376879
S        0.65789536       7.89504795       8.37001856        2       0.83366395      -0.03140291       1.50849975
Mo       7.13745345       0.52237554       9.95221124        0      -1.58019277      -1.92003867      -0.25223465
S        7.10448462       2.20130296      11.63295666        1       0.03563580       1.53880507      -1.18359750
S        6.91497745       2.24622022       8.43909467        2       1.50552388       1.28191421      -0.12286162
Mo       5.53835969       3.33085644       9.99668677        0      -1.04852401      -2.52452743       1.16732115
S        5.44293689       5.15291617      11.54131740        1       0.73635431       0.20228038      -0.08403471
S        5.60340254       4.97765498       8.42017602        2      -0.84629626       1.29341496      -0.07681944
Mo       3.89215611       6.04769714       9.97453508        0       1.50640094       1.13330397      -1.85134991
S        3.74520716       7.92267158      11.55897330        1       1.46408550      -0.52438943      -0.43164947
S        4.07950949       7.95947882       8.30636805        2      -1.26381504      -0.51977038       1.38059729
27
Lattice="8.863291723091884 0.0 0.0 -4.973175259243409 7.855757036469414 0.0 0.0 0.0 100.0" Properties=species:S:1:pos:R:3:atom_types:I:1:MACE_forces:R:3 MACE_energy=-26.668017658979373 pbc="T T T"
Mo       0.93555678       0.33658173       9.88046435        0      -5.95571994       1.17182345       4.46929809
S        0.43506088       2.05114208      11.74446069        1       0.73206269       0.06077508      -1.50657850
S        0.58891876       2.24857988       8.64468838        2       1.30876057      -0.25054674      -3.66302214
Mo      -0.98770041       3.04275919      10.00354623        0       0.67135819       0.80941030       2.99233643
S       -0.84295222       4.87877677      11.52858902        1      -3.89702206      -1.88067183       2.73559649
S       -1.00688058       4.69434851       8.35238411        2      -0.46565885       1.06648604       1.50777367
Mo      -2.56630408       5.70289273      10.04293735        0       0.93522611      -1.59319568      -0.34273724
S       -2.71569663       7.46188210      11.61322902        1       0.48427160      -0.67447332      -0.14820499
S       -2.67552642       7.37120354       8.46500641        2       2.10355064      -0.23683339      -2.04522051
Mo       3.69400727       0.55735569      10.07810867        0       1.71397019      -4.64730419       0.79164315
S        3.60740848       2.17067953      11.66530972        1      -0.69570713       0.77524607       1.20023745
S        3.60157821       2.03537074       8.55013479        2      -2.21029953       1.85029121      -1.78028395
Mo       2.06850705       3.04017731      10.21014069        0      -0.96730499      -1.62171917      -5.03204139
S        1.86522834       4.74228828      11.44191223        1       0.48233901       1.81900990       6.41161251
S        2.01337560       4.83714234       8.44752446        2      -1.59468867      -1.05834531       1.08881310
Mo       0.34500806       5.75113917      10.12797887        0       2.55499726       0.38427701      -5.79557885
S        0.22010478       7.51917885      11.73936784        1       0.13322981      -0.20105705      -1.28492667
S        0.40148850       7.37013906       8.50766101        2      -1.98867290       0.82642900      -0.02257850
Mo       6.72643363       0.51513186      10.01674101        0      -0.13265779      -1.33174325       0.22345978
S        6.49877821       2.00638867      11.71332129        1      -0.77119282       2.21587555      -1.12628911
S        6.45325014       2.23431442       8.43041742        2      -0.32701275      -0.47707283      -0.07468614
Mo       4.88182043       3.03170843       9.99854999        0       3.68685736       0.54359223       2.59114625
S        4.91532101       4.75376093      11.72234767        1      -0.60168784       0.39924177      -1.56857665
S        4.84373752       4.61523743       8.38416788        2      -0.31562133       1.98759704       0.98038317
Mo       3.32471113       5.72573786      10.06711730        0       2.31625991      -0.38718175      -1.32566970
S        3.12901497       7.46228538      11.66436844        1       1.33764047      -0.09293146      -1.00610233
S        3.09800851       7.36752261       8.25553935        2       1.46272279       0.54302133       1.73019657
27
Lattice="9.662663638967494 0.0 0.0 -4.857952457809102 8.334839727027859 0.0 0.0 0.0 100.0" Properties=species:S:1:pos:R:3:atom_types:I:1:MACE_forces:R:3 MACE_energy=-25.99567236295011 pbc="T T T"
Mo       0.81956491       0.69634952      10.05811105        0      -0.33780870      -6.75019744      -1.79207986
S        0.63767396       2.24826992      11.50368708        1       1.18060508       3.47938093       2.58472976
S        0.89686621       2.24877335       8.41759754        2      -0.44454410       2.47071769       0.07179708
Mo      -0.74714517       3.40418056      10.01025767        0      -1.16007323      -2.94742750      -1.78684149
S       -0.73758204       5.19822992      11.47351058        1      -0.83723047      -1.00057811       2.84664288
S       -0.94248268       5.08044495       8.37311644        2       0.66385056       0.55445982       0.66826954
Mo      -2.45616310       5.95259697      10.03644446        0      -0.20270044       0.78442157      -1.39074346
S       -2.36292516       7.75696413      11.68980351        1      -0.29270846       1.20136900      -1.71964963
S       -2.41761777       7.72286072       8.45812179        2      -0.36137395       1.70323076       0.70484346
Mo       3.99455481       0.58639903       9.99541485        0       0.45562257      -4.18610150       1.20233589
S        4.12334266       2.14092353      11.56096928        1      -1.73944770       1.93974470       1.74606196
S        4.09172062       2.35452541       8.55687614        2      -1.21263964       0.85911537      -1.46685578
Mo       2.35684638       3.44429221       9.99117198        0       0.60623675      -6.00896303       0.72501234
S        2.42505609       5.02598521      11.50309669        1      -0.28779796       1.83535025       2.01288500
S        2.44040523       5.03526137       8.48841424        2       0.08959240       2.41323114      -0.64720833
Mo       0.75138418       5.98787052      10.02082090        0       1.11647398       1.27924197      -2.05217304
S        0.76638547       7.73245478      11.71222282        1      -0.72410673       0.51524889      -1.88214987
S        0.88221182       7.97584665       8.55396285        2      -3.07011100      -1.67281374      -2.52369529
Mo       7.08039602       0.35899211       9.98744509        0       3.92368435       1.11939047       4.11415559
S        7.14972659       2.34458832      11.54248074        1       0.85527014      -0.36603460       0.29781253
S        7.23577938       2.17226341       8.56152485        2      -0.47932767       1.48529076      -0.53424242
Mo       5.51772493       3.19825180      10.11795965        0       2.13693833       1.78476801      -2.54155435
S        5.51361057       5.21716198      11.57222532        1       1.75942988      -1.76182990       2.06607404
S        5.55947247       5.30135277       8.28777772        2       0.51771498      -1.15217093       2.19714490
Mo       4.12703959       6.06636034      10.11962936        0      -3.05798871      -0.12538533      -5.12072337
S        3.87107660       7.76928499      11.60397393        1       0.61658939       1.88123404      -0.21330073
S        3.88599768       7.80287724       8.32140862        2       0.28585035       0.66530672       2.43345266
27
Lattice="9.491578001620752 0.0 0.0 -4.892338965155401 8.24159412827531 0.0 0.0 0.0 100.0" Properties=species:S:1:pos:R:3:atom_types:I:1:MACE_forces:R:3 MACE_energy=-28.347250816191053 pbc="T T T"
Mo       0.89837026       0.46181937       9.96041545        0      -2.50265768      -0.56380608       1.16945386
S        0.83078548       2.19841367      11.65182983        1      -0.10977225       0.22472475      -1.56535549
S        0.77748173       2.25949102       8.33101049        2       0.09238275       0.02596026       1.50418680
Mo      -0.81260721       3.10345272      10.05423115        0       0.28355108      -0.05047117      -0.23152931
S       -0.81223894       4.94013001      11.65534172        1      -1.00769176       0.15844997      -1.47871763
S       -0.85472324       5.00622936       8.54980370        2       0.47750583      -1.32325014      -3.29019741
Mo      -2.50166484       5.77478331       9.85046501        0       0.73118016       2.53673185       4.82895833
S       -2.61282356       7.79100709      11.60568748        1       1.22976820      -1.01394706      -1.37015052
S       -2.50754203       7.69689809       8.48151180        2       1.25023903       0.34161817      -1.36649059
Mo       4.01007876       0.49353548      10.03738645        0      -1.85357738      -1.91814764       2.33073999
S        3.99013031       2.14205078      11.59043451        1      -0.07755618       1.78822424      -0.23495245
S        4.00498368       2.19477365       8.39212201        2       0.18735211       0.36984230       0.48091508
Mo       2.42191091       3.06039512       9.96460693        0      -0.71715777       0.28972553       1.96604094
S        2.10932667       4.98295601      11.66898966        1       1.85556985      -0.82547154      -1.25119124
S        2.32068038       4.81266191       8.48139410        2      -0.10487799       1.22321707      -1.11433964
Mo       0.72865610       5.81294990      10.01083661        0      -0.53981070       0.46852760       4.23408785
S        0.67844281       7.83910946      11.63289413        1       0.26791395      -0.80970373      -0.96708243
S        0.68962104       7.75335590       8.79228884        2      -0.21659267      -0.71912004      -7.51224284
Mo       7.32609441       0.40248847       9.87196818        0      -2.09109276       0.61597989       4.70129343
S        7.01386611       1.97191899      11.46152274        1       0.89952878       1.76543306       1.70440684
S        7.10279745       2.19391751       8.46124253        2       0.56675328       0.93594080      -1.57298872
Mo       5.57878223       3.10730155       9.99454811        0      -1.52552732      -0.13372647      -1.00846334
S        5.59554530       5.00272697      11.42614384        1      -1.27788133      -0.52110843       1.74504263
S        5.29659192       5.00691655       8.41150002        2       0.49694772      -1.05449094      -0.99919105
Mo       3.79771704       5.89512988       9.99676819        0       0.09848907       0.11393205       0.89203814
S        3.67298631       7.74212831      11.56802300        1       2.17183878      -0.45235665      -0.76921231
S        3.84043009       7.79334107       8.39089950        2       1.41517523      -1.47270765      -0.82505893
27
Lattice="9.50045283258205 0.0 0.0 -5.171381490359387 8.653363956670537 0.0 0.0 0.0 100.0" Properties=species:S:1:pos:R:3:atom_types:I:1:MACE_forces:R:3 MACE_energy=-27.58197959840917 pbc="T T T"
Mo       0.77741255       0.45601129       9.81550970        0      -0.99339907       0.15289572       2.75101732
S        0.76343359       2.31357878      11.55471865        1      -0.29211090       0.41762396      -2.34455620