27
Lattice="9.811129067365956 0.0 0.0 -4.528777932979856 8.422697326268596 0.0 0.0 0.0 100.0" Properties=species:S:1:pos:R:3:atom_types:I:1:MACE_forces:R:3 MACE_energy=-27.07862884252694 pbc="T T T"
Mo       0.83472988       0.29282983      10.07725889        0      -0.41386156       2.79721497       2.06241862
S        0.87171097       2.34922678      11.64810110        1       0.10382217      -0.90036793      -0.76451496
S        0.86545637       2.26451945       8.18193614        2       0.07690682       0.13460687       3.20259307
Mo      -0.77480645       3.16883379      10.12756251        0       1.82351611       1.91898408      -2.96260172
S       -0.62070402       5.19333476      11.81220107        1      -0.15572554      -0.77871649      -1.81286442
S       -0.51218607       5.05976212       8.40774026        2      -0.10896857       0.03645976       2.31010412
Mo      -2.18696150       6.01182918      10.01462170        0      -0.00963862      -0.97165404       1.15623033
S       -1.92230433       7.88123779      11.57541339        1      -1.55791390      -0.50178397       1.11716032
S       -2.15987788       7.89304941       8.62920590        2       0.37193815      -0.57374878      -3.17684256
Mo       4.02889600       0.32255853      10.04670311        0       1.40824551       1.66636755      -0.99466344
S        4.12432297       2.25078485      11.55626207        1      -0.68957804      -0.20373728       0.22534645
S        4.18692386       2.16217760       8.42734290        2      -0.44468256       0.43950719       1.57127359
Mo       2.42883723       3.27767158      10.02679829        0       1.27084925      -1.70351837      -0.66660928
S        2.79050684       5.17031883      11.55550170        1      -0.13635996      -0.37821949       0.69288007
S        2.85467457       4.96361012       8.50356850        2      -0.90578879       1.64262118       0.20173306
Mo       1.02212048       6.04715121      10.20094681        0       0.56145892      -0.35691891      -2.56884665
S        1.05539885       8.00459999      11.58764983        1       1.44781535      -0.09752350       0.06442987
S        1.29158020       7.83793049       8.53726875        2      -1.63992130      -0.92422728      -1.71270179
Mo       7.37255135       0.37677875       9.85935665        0       0.06571161       2.11494690       5.17790504
S        7.59042513       2.22612066      11.57322649        1      -1.76785787      -1.13540333       0.28628518
S        7.52220050       2.40506290       8.32233438        2      -0.89146610      -0.49918204       2.02626181
Mo       5.79919160       3.11027214      10.10192701        0       0.89086695       1.61207681      -1.96433561
S        6.10283035       5.16892565      11.81806420        1      -0.53202480      -0.46437086      -2.60381323
S        5.77532603       5.12753250       8.38165737        2       1.64310909      -0.73786156       1.58252782
Mo       4.49017506       6.13691617      10.04595844        0      -1.10535526      -0.58407567       0.33217162
S        4.36249107       7.85818458      11.65229536        1       0.19387021       0.66405617      -1.27351260
S        4.50332786       8.12986554       8.47154498        2       0.50103272      -2.21553198      -1.50801473
27
Lattice="9.261324002253584 0.0 0.0 -4.267256908602364 7.427683724371399 0.0 0.0 0.0 100.0" Properties=species:S:1:pos:R:3:atom_types:I:1:MACE_forces:R:3 MACE_energy=-21.58320060950147 pbc="T T T"
Mo       0.60360031       0.37843622       9.81891220        0       5.37276922      -0.72816574       5.63032904
S        0.91911787       2.02201376      11.54952488        1       0.64319317       0.12970980      -1.38632519
S        1.03128733       1.97053098       8.50017746        2      -2.82595047       0.64991895      -7.85707492
Mo      -0.51454157       2.93493210       9.88790629        0      -1.12274695      -2.19219019       3.27140508
S       -0.52815942       4.56262461      11.50951967        1       1.01983938      -0.11499411       1.33559861
S       -0.38908304       4.44274325       8.21565662        2       0.10724121       1.41286819       1.02028485
Mo      -1.94773886       5.20902613       9.90304763        0      -1.00111876       2.45679806      -2.04828037
S       -1.78727161       7.04925028      11.81041823        1      -0.07691365       0.07275495      -2.92138327
S       -1.95886542       6.96653184       8.38280685        2       0.99456962       0.78204520       0.45176041
Mo       4.09290600       0.58632424       9.93478340        0      -2.81946180      -6.24035050      -0.79882821
S        4.10207286       2.17888762      11.41976817        1      -1.38183618       1.00341830       1.12023116
S        4.12575407       2.00502849       8.18958136        2      -1.14549303       0.52715361      -0.76415780
Mo       2.47131578       2.79216972       9.73142788        0       2.45461883       0.54829753       6.14418237
S        2.59809404       4.47816967      11.43465205        1       1.70757579       0.02880132      -0.17000060
S        2.48775740       4.50360497       8.22261187        2       0.94217994       0.74532350       0.53520660
Mo       1.10853695       5.39278932      10.06683599        0      -1.25636964      -5.26694116      -4.23850772
S        1.17037945       6.91255870      11.45561228        1       0.94075121       3.95347053       2.84486251
S        1.13867979       6.71359675       8.36565210        2       0.61644866       4.44718072      -0.29428091
Mo       7.04564300       0.53554254       9.97141935        0      -0.31851308      -7.64494841      -3.32273211
S        7.07759919       1.85945807      11.53759074        1       0.53824226       4.44955230       1.01549847
S        7.05558966       2.15078320       8.46797583        2       2.00718468      -0.04405841      -3.97707210
Mo       5.54956131       2.72385912       9.82791050        0       0.88793614       3.57898809       1.95680082
S        5.77418176       4.48675121      11.30256241        1      -0.64325731      -0.55439042       1.83957428
S        5.54778962       4.52775295       8.27774083        2       3.71178811      -2.02649456      -2.05175620
Mo       4.33773466       5.34816826       9.70010608        0      -5.51655124      -0.18536754       4.73461549
S        4.25942646       6.99261080      11.46685738        1      -0.72917375      -0.96518951      -0.33239780
S        4.42070130       6.99663114       8.24166520        2      -3.10695236       1.17680950      -1.73755246
27
Lattice="8.913963086677777 0.0 0.0 -4.676675077573148 8.108978736172254 0.0 0.0 0.0 100.0" Properties=species:S:1:pos:R:3:atom_types:I:1:MACE_forces:R:3 MACE_energy=-25.62059103582051 pbc="T T T"
Mo       0.77384342       0.45631468      10.05185989        0       1.52727994      -0.58617687      -0.89250619
S        0.79559527       2.34602227      11.55108508        1      -3.07522545      -2.74034492       2.89996641
S        0.89530419       2.10836175       8.55839223        2      -4.39579987      -0.87368169      -4.02990135
Mo      -0.74814446       3.14199549      10.08836970        0      -0.93533557       1.00554355      -3.62853051
S       -0.90358615       5.06544777      11.61182393        1      -0.74533761      -1.73762931       0.06931602
S       -0.93922774       5.04845330       8.35510217        2       0.68136064      -1.66978300       1.04684002
Mo      -2.43624316       5.68495751       9.93769163        0       1.28173305       3.21973754      -0.41858359
S       -2.44883770       7.56626636      11.52970940        1      -0.32518788      -0.65417164       1.88820706
S       -2.32393257       7.60288581       8.54413969        2       0.05030083       0.43053936      -0.19308647
Mo       3.82342786       0.44048259      10.24693573        0      -3.93513198       1.95104010      -9.11845634
S        3.47948259       2.26577253      11.61064462        1       1.39288477       0.55040688       0.58390647
S        3.80905766       2.14922335       8.35842262        2      -2.07606917      -0.41612134       1.30503698
Mo       1.98769789       3.01720090       9.97900785        0       7.60884018       4.36008300       2.20665335
S        1.98765599       4.77270431      11.75634869        1       0.54104455       1.06665830      -2.33070320
S        1.88532548       4.96774717       8.63409406        2       0.73474336      -0.88682426      -3.69914921
Mo       0.48507380       5.89708844      10.07117199        0       0.89085579       1.53631214      -0.15356271
S        0.34413246       7.72039413      11.57887258        1       4.57560461      -2.10254740       4.77375443
S        0.56971812       7.69740769       8.24365089        2      -0.05321337      -0.83216646       2.44243768
Mo       6.69056308       0.38858728      10.02807031        0      -0.67962230      -0.02472634      -2.03161191
S        6.67024370       2.20652142      11.49012605        1      -1.04412452       0.23190579       1.80131373
S        6.50618132       2.12583401       8.47489157        2       1.70579219       1.09258223      -0.39878185
Mo       5.01607422       3.24278835       9.93038932        0       1.00159954      -1.64709366       1.13700348
S        5.14188144       4.92713783      11.45623784        1      -1.95133182      -0.36030419       1.41788296
S        4.98768058       4.98143813       8.26005169        2      -0.41938630      -0.64118379       0.72525908
Mo       3.54682847       5.83047350       9.93722543        0      -0.23260631      -0.69622595       1.06443765
S        3.56827725       7.52770009      11.39132012        1      -0.85824003       0.55529509       4.54935647
S        3.63988668       7.68411251       8.46053296        2      -1.26542728      -0.13112318      -1.01649845
27
Lattice="9.351681539757159 0.0 0.0 -5.103549276780913 8.335490416920987 0.0 0.0 0.0 100.0" Properties=species:S:1:pos:R:3:atom_types:I:1:MACE_forces:R:3 MACE_energy=-28.326916609797678 pbc="T T T"
Mo       0.67860571       0.50587828      10.02767719        0      -2.11722557      -3.22397076       0.43270706
S        0.48191553       2.14093844      11.52878947        1      -0.12990790       1.89782669       0.49674645
S        0.45482932       2.06853211       8.40332939        2       0.31532809       1.82848148      -1.28305595
Mo      -0.97568244       3.24671399       9.87284982        0      -0.91055233      -0.53618574       3.40158907
S       -1.21068927       5.06972986      11.67529759        1      -0.67344756      -0.71494543      -1.45540188
S       -1.19102642       5.13815891       8.48909646        2      -0.10028832      -0.83779339      -3.25963863
Mo      -2.71062791       6.05135716       9.92020954        0      -1.06290214       0.92664907       3.61362981
S       -2.86302385       7.91716726      11.67059744        1       0.40605363      -0.53939725      -1.86873383
S       -3.14044148       7.94637911       8.38085729        2       2.62730369      -0.69756732       0.26932078
Mo       3.89108319       0.38910944      10.00223688        0      -3.65053230       1.90629200       2.50432181
S        3.76146140       2.41960171      11.56919341        1      -0.95391895      -0.95931872      -0.89601882
S        3.53607746       2.31529212       8.48666315        2       1.49095376      -0.26935408      -0.70253805
Mo       1.92767427       3.11113612       9.93457466        0       1.52469972       2.25650055       1.58095178
S        2.01595602       5.09241049      11.59316925        1      -0.83974147      -1.26068666      -0.89669693
S        1.89274200       5.27216758       8.38491873        2       0.00454776      -1.84280495       0.43845925
Mo       0.27169347       5.78582645      10.02324356        0       2.41549418       4.15097969       1.84329795
S        0.27069377       7.85884269      11.68685347        1       0.72868538      -0.70332665      -2.17446746
S        0.11628816       7.86493905       8.49842944        2       1.69875775      -1.49535596      -1.43439918
Mo       6.93338906       0.46458499       9.87283298        0      -1.38927237       0.57218641       2.73573277
S        6.93543054       2.33217004      11.59029922        1      -0.92152640      -0.16465280      -1.83058092
S        6.79729030       2.37511763       8.40148897        2      -0.72436199      -0.12116253      -0.45995262
Mo       5.21956530       3.36631545      10.00203956        0       0.34773773      -3.08443934      -1.80846408
S        5.09961222       4.97066843      11.44069944        1       0.52341204       2.30330941       2.49065637
S        5.08269129       5.14315178       8.45591950        2      -0.10515724      -0.34209137      -1.19315086
Mo       3.51464808       5.95339082      10.00440740        0      -0.64331791       1.65024663      -0.81300716
S        3.22616648       7.87172370      11.57604446        1       1.26008469      -0.38010791      -1.07817560
S        3.31161653       7.82839268       8.31314551        2       0.87909401      -0.31931106       1.34686888
27
Lattice="10.797208990133319 0.0 0.0 -4.724135241080002 7.946281536751546 0.0 0.0 0.0 100.0" Properties=species:S:1:pos:R:3:atom_types:I:1:MACE_forces:R:3 MACE_energy=-23.72101464817743 pbc="T T T"
Mo       0.89635946       0.49482745      10.00132728        0       0.60395285      -1.28232873       0.28646628
S        1.01863353       2.21678577      11.75346920        1      -0.36280564       0.44335638      -1.95424897
S        1.05528250       2.17410873       8.37143352        2       0.10617478       0.89751065       0.61446351
Mo      -0.71697247       2.96667893       9.97777101        0      -0.17843890      -0.58883316       2.68197054
S       -0.60586919       4.88332281      11.58542036        1      -0.14029405       0.14090108      -1.73156868
S       -0.53394250       4.66651270       8.48186197        2      -0.15211794       2.07559638       0.44950864
Mo      -2.44063999       5.89234251       9.90943331        0       1.48646317      -3.41435737       1.20153874
S       -2.11487740       7.55680030      11.50913808        1      -0.05117556       0.51804895       0.35235981
S       -1.92251324       7.57371088       8.41393133        2      -0.87489390       0.93835290      -0.40399638
Mo       4.45161908       0.37257065      10.01326144        0       1.27987072       0.67853016       0.13387160
S        4.72418599       2.34870715      11.60035398        1      -0.96125136      -0.68813956      -1.27036768
S        4.55180531       2.32586026       8.38360629        2       1.09945040      -1.45366455       0.37801099
Mo       2.98406892       3.16847877       9.84058815        0      -0.85236624      -2.46125550       3.31081838
S        3.21960139       4.80168835      11.69343780        1      -0.05853311       0.85863154      -2.30599704
S        3.15023472       4.70387752       8.25871821        2      -0.35727494       2.75086815       0.39807168
Mo       1.36554570       5.65560074      10.09983886        0       0.10142739      -0.91210027      -1.75065447
S        1.53905360       7.37906636      11.68450851        1      -0.32623560       1.27573116      -1.54156852
S        1.75011745       7.54186668       8.24862606        2      -0.62142049      -0.25102629       2.23449727
Mo       8.11897102       0.54141957       9.89197639        0       0.12163567      -4.06573026       3.26731475
S        8.11973114       2.18748323      11.69419361        1       0.11756417       0.71340295      -2.12052964
S        8.16635781       2.19737563       8.52999809        2       0.17411088       2.37776369      -1.90739720
Mo       6.33095969       3.08814429       9.99717467        0       1.61075981      -0.13667690      -0.15818876
S        6.66630372       4.88119576      11.57766581        1      -0.14961566       0.65416679      -1.59460884
S        6.84745714       4.88303345       8.24653140        2      -0.97080017      -0.05027418       1.34736703
Mo       4.94033747       5.64073299       9.84764845        0       0.42081048      -1.19788477       2.15818991
S        5.19438392       7.47565171      11.47969085        1      -0.51268362       0.32740401      -0.82906035
S        5.25336800       7.42311681       8.47724725        2      -0.55231314       1.85200678      -1.24626258
27
Lattice="9.458852624701752 0.0 0.0 -4.708427659524038 8.432708997710982 0.0 0.0 0.0 100.0" Properties=species:S:1:pos:R:3:atom_types:I:1:MACE_forces:R:3 MACE_energy=-28.786902359230975 pbc="T T T"
Mo       0.74791242       0.33533146       9.98592165        0      -0.37760522       0.51494988       1.33214089
S        0.96857043       2.14405042      11.57516307        1      -0.95239311       1.11733868      -0.22270766
S        0.62332231       2.30962291       8.63421850        2       1.18626410       0.04597868      -3.20183871
Mo      -0.76474067       3.35159876      10.07071932        0      -1.64581906      -1.30405619       1.39167913
S       -0.74338069       5.26246576      11.58263745        1       0.49297577      -0.94765345      -0.25364666
S       -0.94357163       5.14242536       8.39745396        2       2.02983195      -1.74025108      -1.33861890
Mo      -2.27457597       5.92007452       9.94678092        0      -3.32579716       2.83123490       2.51986636
S       -2.29434686       8.07487398      11.49853407        1      -1.57845476      -2.76856414       2.08929914
S       -2.46772857       7.80063631       8.45688583        2       0.93051145       0.31569198      -0.23687585
Mo       3.83385931       0.35000309      10.06576572        0       2.21825738       1.87807266      -2.90242267
S        3.89961158       2.37261319      11.52928196        1       0.30158957      -0.15745837      -0.31348684
S        3.81288998       2.19514147       8.43514654        2       0.88939306       0.33791091       0.32237704
Mo       2.38088874       3.31683369       9.93483722        0      -0.17243089      -1.36664740       1.29000211
S        2.38247877       5.14624011      11.40544666        1      -0.85297803      -0.47310921       1.92923133
S        2.40849913       5.10627646       8.42321893        2      -0.05138743      -0.39365422      -2.27975946
Mo       0.76684432       5.88362862       9.85292545        0       0.03327968       2.66513330       1.49447317
S        0.86438400       8.09737375      11.69363236        1      -0.43014181      -0.47974614      -1.63241797
S        0.65789536       7.89504795       8.37001856        2       0.78568002      -0.01610210       1.49699503
Mo       7.13745345       0.52237554       9.95221124        0      -1.51798443      -1.86405077      -0.27802155
S        7.10448462       2.20130296      11.63295666        1       0.03528743       1.53125593      -1.16303581
S        6.91497745       2.24622022       8.43909467        2       1.48178367       1.24973042      -0.10089589
Mo       5.53835969       3.33085644       9.99668677        0      -1.05623009      -2.52283060       1.14072265
S        5.44293689       5.15291617      11.54131740        1       0.72861751       0.19650132      -0.05735505
S        5.60340254       4.97765498       8.42017602        2      -0.91258044       1.30480677      -0.07305504
Mo       3.89215611       6.04769714       9.97453508        0       1.53464732       1.08612017      -1.89102154
S        3.74520716       7.92267158      11.55897330        1       1.51475858      -0.51473099      -0.42696379
S        4.07950949       7.95947882       8.30636805        2      -1.28907507      -0.52587093       1.36533654
27
Lattice="8.863291723091884 0.0 0.0 -4.973175259243409 7.855757036469414 0.0 0.0 0.0 100.0" Properties=species:S:1:pos:R:3:atom_types:I:1:MACE_forces:R:3 MACE_energy=-25.95780220466191 pbc="T T T"
Mo       0.93555678       0.33658173       9.88046435        0      -5.90956681       1.17657177       4.46391416
S        0.43506088       2.05114208      11.74446069        1       0.81931783       0.07476241      -1.53840867
S        0.58891876       2.24857988       8.64468838        2       1.18632963      -0.28836530      -3.68393014
Mo      -0.98770041       3.04275919      10.00354623        0       0.61427637       0.82724760       2.96036146
S       -0.84295222       4.87877677      11.52858902        1      -3.93563167      -1.92572957       2.75840742
S       -1.00688058       4.69434851       8.35238411        2      -0.40772444       1.03388655       1.57936448
Mo      -2.56630408       5.70289273      10.04293735        0       0.91809127      -1.57163980      -0.40277082
S       -2.71569663       7.46188210      11.61322902        1       0.51088316      -0.66173280      -0.07013931
S       -2.67552642       7.37120354       8.46500641        2       2.09063648      -0.26202901      -2.07369909
Mo       3.69400727       0.55735569      10.07810867        0       1.64941539      -4.61582351       0.70698163
S        3.60740848       2.17067953      11.66530972        1      -0.67360317       0.81756062       1.22934152
S        3.60157821       2.03537074       8.55013479        2      -2.18660341       1.84345782      -1.72918976
Mo       2.06850705       3.04017731      10.21014069        0      -0.94768991      -1.59299883      -4.98252139
S        1.86522834       4.74228828      11.44191223        1       0.53907064       1.79411145       6.35884370
S        2.01337560       4.83714234       8.44752446        2      -1.55749114      -1.06016500       1.12908381
Mo       0.34500806       5.75113917      10.12797887        0       2.46916706       0.38545552      -5.83765048
S        0.22010478       7.51917885      11.73936784        1       0.19056650      -0.16016448      -1.30627769
S        0.40148850       7.37013906       8.50766101        2      -1.96571784       0.85436339      -0.09694457
Mo       6.72643363       0.51513186      10.01674101        0      -0.22296668      -1.36886740       0.21737086
S        6.49877821       2.00638867      11.71332129        1      -0.83449507       2.23433528      -1.09710719
S        6.45325014       2.23431442       8.43041742        2      -0.35842202      -0.42848175      -0.07352235
Mo       4.88182043       3.03170843       9.99854999        0       3.74736782       0.44716389       2.62073384
S        4.91532101       4.75376093      11.72234767        1      -0.61432710       0.37755995      -1.55384399
S        4.84373752       4.61523743       8.38416788        2      -0.27136128       1.98432047       0.95157638
Mo       3.32471113       5.72573786      10.06711730        0       2.33566395      -0.39843388      -1.35294460
S        3.12901497       7.46228538      11.66436844        1       1.36932600      -0.10073913      -0.93992221
S        3.09800851       7.36752261       8.25553935        2       1.44548844       0.58437376       1.76289299
27
Lattice="9.662663638967494 0.0 0.0 -4.857952457809102 8.334839727027859 0.0 0.0 0.0 100.0" Properties=species:S:1:pos:R:3:atom_types:I:1:MACE_forces:R:3 MACE_energy=-26.2823859526466 pbc="T T T"
Mo       0.81956491       0.69634952      10.05811105        0      -0.24836999      -6.63552945      -1.79106056
S        0.63767396       2.24826992      11.50368708        1       1.20385866       3.43120862       2.60631794
S        0.89686621       2.24877335       8.41759754        2      -0.47981129       2.44045730       0.03839817
Mo      -0.74714517       3.40418056      10.01025767        0      -1.11602458      -2.87935156      -1.73461778
S       -0.73758204       5.19822992      11.47351058        1      -0.79862564      -0.99728529       2.78289748
S       -0.94248268       5.08044495       8.37311644        2       0.67445792       0.52972488       0.68708987
Mo      -2.45616310       5.95259697      10.03644446        0      -0.21863241       0.74912759      -1.43868477
S       -2.36292516       7.75696413      11.68980351        1      -0.36099389       1.19837307      -1.73470081
S       -2.41761777       7.72286072       8.45812179        2      -0.30778016       1.67211754       0.70697896
Mo       3.99455481       0.58639903       9.99541485        0       0.40284833      -4.09324535       1.22686334
S        4.12334266       2.14092353      11.56096928        1      -1.81790130       1.91134806       1.74171153
S        4.09172062       2.35452541       8.55687614        2      -1.19299007       0.79868705      -1.47198701
Mo       2.35684638       3.44429221       9.99117198        0       0.71972925      -5.94213169       0.69565056
S        2.42505609       5.02598521      11.50309669        1      -0.32695520       1.83514656       1.99551118
S        2.44040523       5.03526137       8.48841424        2       0.08956307       2.40695438      -0.58236408
Mo       0.75138418       5.98787052      10.02082090        0       1.17450322       1.25113583      -2.04583864
S        0.76638547       7.73245478      11.71222282        1      -0.71062876       0.49423727      -1.90901251
S        0.88221182       7.97584665       8.55396285        2      -3.08673369      -1.65750680      -2.49207976
Mo       7.08039602       0.35899211       9.98744509        0       3.98415853       1.06068113       4.09687749
S        7.14972659       2.34458832      11.54248074        1       0.83858717      -0.38154381       0.29229736
S        7.23577938       2.17226341       8.56152485        2      -0.50432359       1.49901785      -0.53898265
Mo       5.51772493       3.19825180      10.11795965        0       2.04041523       1.83862761      -2.48161386
S        5.51361057       5.21716198      11.57222532        1       1.76149714      -1.75951269       2.05700993
S        5.55947247       5.30135277       8.28777772        2       0.54264055      -1.17258816       2.20763223
Mo       4.12703959       6.06636034      10.11962936        0      -3.10474755      -0.13183322      -5.17612724
S        3.87107660       7.76928499      11.60397393        1       0.58454895       1.87457516      -0.19884260
S        3.88599768       7.80287724       8.32140862        2       0.25771009       0.65910813       2.46067623
27
Lattice="9.491578001620752 0.0 0.0 -4.892338965155401 8.24159412827531 0.0 0.0 0.0 100.0" Properties=species:S:1:pos:R:3:atom_types:I:1:MACE_forces:R:3 MACE_energy=-28.422441667595663 pbc="T T T"
Mo       0.89837026       0.46181937       9.96041545        0      -2.45322920      -0.57998904       1.19371720
S        0.83078548       2.19841367      11.65182983        1      -0.08294396       0.21459694      -1.60521285
S        0.77748173       2.25949102       8.33101049        2       0.09982882       0.04480249       1.54151147
Mo      -0.81260721       3.10345272      10.05423115        0       0.29007138      -0.04894420      -0.19420829
S       -0.81223894       4.94013001      11.65534172        1      -1.01256364       0.11204420      -1.45408203
S       -0.85472324       5.00622936       8.54980370        2       0.43885183      -1.30488373      -3.34203172
Mo      -2.50166484       5.77478331       9.85046501        0       0.77903944       2.54646545       4.84220996
S       -2.61282356       7.79100709      11.60568748        1       1.18757560      -1.00026951      -1.38828071
S       -2.50754203       7.69689809       8.48151180        2       1.21523167       0.37409805      -1.39794973
Mo       4.01007876       0.49353548      10.03738645        0      -1.88217772      -1.88342793       2.13603072
S        3.99013031       2.14205078      11.59043451        1      -0.09061640       1.80072964      -0.25914628
S        4.00498368       2.19477365       8.39212201        2       0.19604490       0.35105124       0.50975026
Mo       2.42191091       3.06039512       9.96460693        0      -0.72156617       0.33114910       1.98321991
S        2.10932667       4.98295601      11.66898966        1       1.83411887      -0.82001525      -1.23149474
S        2.32068038       4.81266191       8.48139410        2      -0.13251750       1.22176074      -1.04041752
Mo       0.72865610       5.81294990      10.01083661        0      -0.50906509       0.33598647       4.10597173
S        0.67844281       7.83910946      11.63289413        1       0.34690904      -0.83035544      -0.97901210
S        0.68962104       7.75335590       8.79228884        2      -0.16209562      -0.66039598      -6.97464398
Mo       7.32609441       0.40248847       9.87196818        0      -2.08553704       0.58596401       4.51617210
S        7.01386611       1.97191899      11.46152274        1       0.90525779       1.83203526       1.67057097
S        7.10279745       2.19391751       8.46124253        2       0.55384349       0.92940341      -1.59272858
Mo       5.57878223       3.10730155       9.99454811        0      -1.53532798      -0.16775297      -1.02785437
S        5.59554530       5.00272697      11.42614384        1      -1.34376288      -0.53864290       1.75298813
S        5.29659192       5.00691655       8.41150002        2       0.51540111      -1.01468710      -1.02495510
Mo       3.79771704       5.89512988       9.99676819        0       0.07669303       0.08277497       0.85702553
S        3.67298631       7.74212831      11.56802300        1       2.21218974      -0.50895016      -0.73725231
S        3.84043009       7.79334107       8.39089950        2       1.36034650      -1.40454778      -0.85989767
27
Lattice="9.50045283258205 0.0 0.0 -5.171381490359387 8.653363956670537 0.0 0.0 0.0 100.0" Properties=species:S:1:pos:R:3:atom_types:I:1:MACE_forces:R:3 MACE_energy=-28.06494674913721 pbc="T T T"
Mo       0.77741255       0.45601129       9.81550970        0      -0.98127444       0.13741856       2.84486655
S        0.76343359       2.31357878      11.55471865        1      -0.30991365       0.42328848      -2.36641718