27
Lattice="9.811128616333008 0.0 0.0 -4.528778076171875 8.422697067260742 0.0 0.0 0.0 100.0" Properties=species:S:1:pos:R:3:energies:R:1:forces:R:3 original_dataset_index=0 energy=-27.063220898062635 pbc="F F F"
X        0.83472985       0.29282984      10.07725906       0.77464226      -0.43710609       2.79286695       1.89209565
H        0.87171096       2.34922671      11.64810085      -1.95309826       0.16203028      -0.94771316      -0.73799349
He       0.86545634       2.26451945       8.18193626      -1.44891451       0.10341527       0.04419087       3.09876232
X       -0.77480644       3.16883373      10.12756252       0.61365463       1.77646183       1.96054218      -3.02417987
H       -0.62070400       5.19333458      11.81220150      -1.89058624      -0.19034855      -0.77644605      -1.87306674
He      -0.51218605       5.05976200       8.40774059      -1.74997101      -0.13187833       0.10846133       2.34935770
X       -2.18696141       6.01182938      10.01462173       0.58489383       0.11735350      -0.97000539       1.19559997
H       -1.92230427       7.88123798      11.57541370      -2.01519906      -1.56172217      -0.54872830       1.11793340
He      -2.15987778       7.89304924       8.62920570      -1.86542796       0.31271378      -0.49468738      -3.16816780
X        4.02889585       0.32255852      10.04670334       0.46642560       1.39091522       1.68133602      -1.13040096
H        4.12432289       2.25078487      11.55626202      -2.01684698      -0.74831291      -0.13829428       0.25264223
He       4.18692398       2.16217756       8.42734337      -1.80002233      -0.44583439       0.36271000       1.53393427
X        2.42883730       3.27767158      10.02679825       0.65419276       1.32256831      -1.77909598      -0.49755186
H        2.79050684       5.17031860      11.55550194      -1.95833719      -0.09989942      -0.26951094       0.73834030
He       2.85467458       4.96361017       8.50356865      -1.57492011      -0.82376686       1.61143718       0.25668648
X        1.02212048       6.04715109      10.20094681       0.68311093       0.62788585      -0.34549861      -2.57354433
H        1.05539882       8.00459957      11.58765030      -1.97471912       1.38533369      -0.16572385      -0.00443839
He       1.29158020       7.83793068       8.53726864      -1.76900275      -1.71346373      -0.94498737      -1.57613767
X        7.37255144       0.37677875       9.85935688       0.78435592       0.15426982       2.10815603       5.20882087
H        7.59042501       2.22612071      11.57322693      -1.89027452      -1.73499722      -1.16518283       0.32303845
He       7.52220058       2.40506291       8.32233429      -1.80220022      -0.90337967      -0.45955575       2.02284828
X        5.79919147       3.11027217      10.10192680       0.81673924       0.91029451       1.61143114      -1.94817375
H        6.10283041       5.16892576      11.81806374      -1.77754129      -0.64062362      -0.38483769      -2.57997850
He       5.77532625       5.12753248       8.38165760      -1.66679468       1.56418864      -0.69973546       1.59011729
X        4.49017525       6.13691616      10.04595852       0.51045315      -1.12934642      -0.67404803       0.27916811
H        4.36249113       7.85818481      11.65229511      -2.01090505       0.15692710       0.70882014      -1.34505609
He       4.50332785       8.12986565       8.47154522      -1.78692793       0.57632178      -2.22590056      -1.40065516
27
Lattice="9.261323928833008 0.0 0.0 -4.267256736755371 7.4276838302612305 0.0 0.0 0.0 100.0" Properties=species:S:1:pos:R:3:energies:R:1:forces:R:3 original_dataset_index=1 energy=-21.593125358319647 pbc="F F F"
X        0.60360032       0.37843621       9.81891251       0.94258662       5.47165328      -0.75389198       5.55989105
H        0.91911787       2.02201366      11.54952526      -1.79965136       0.62039727       0.17162896      -1.55674546
He       1.03128731       1.97053099       8.50017738      -1.07134582      -2.74876946       0.56150229      -7.45231238
X       -0.51454157       2.93493199       9.88790607       0.39855508      -1.08470926      -2.24804680       3.32319550
H       -0.52815944       4.56262445      11.50951958      -1.80188007       0.83378343      -0.19137110       1.19643010
He      -0.38908303       4.44274330       8.21565628      -1.41120172       0.09691663       1.41743611       0.86028665
X       -1.94773889       5.20902634       9.90304756       0.42954585      -1.02668951       2.45364291      -1.90795527
H       -1.78727162       7.04925013      11.81041813      -1.38609221      -0.20632748       0.01970567      -2.98541358
He      -1.95886540       6.96653175       8.38280678      -1.48023962       0.80646179       0.76722753       0.59104258
X        4.09290600       0.58632421       9.93478298       0.65266950      -2.70793760      -6.49042764      -0.70366059
H        4.10207272       2.17888761      11.41976833      -1.58748868      -1.05666864       0.97490020       1.09816218
He       4.12575388       2.00502849       8.18958092      -1.64220788      -1.11173447       0.70382771      -0.84187577
X        2.47131586       2.79216981       9.73142815       0.60451020       2.22320100       0.80592678       6.08247439
H        2.59809399       4.47816944      11.43465233      -1.62179837       1.68508849       0.01736807      -0.19808475
He       2.48775744       4.50360489       8.22261143      -1.54639882       1.08922430       0.67106926       0.37436427
X        1.10853696       5.39278936      10.06683636       0.49709798      -1.27960008      -5.26719235      -4.19749913
H        1.17037940       6.91255856      11.45561218      -1.45822078       0.95895611       3.96521482       2.96088704
He       1.13867974       6.71359682       8.36565208      -1.14895449       0.69313549       4.38691194      -0.19612490
X        7.04564285       0.53554255       9.97141933       0.46231008      -0.57687572      -7.45679874      -3.43745023
H        7.07759905       1.85945809      11.53759098      -1.06447124       0.48777525       4.48800245       1.05453327
He       7.05558968       2.15078330       8.46797562      -1.40252304       1.93790710      -0.22136648      -3.86490776
X        5.54956150       2.72385907       9.82791042       0.43408932       1.05376371       3.81593444       2.17316546
H        5.77418184       4.48675108      11.30256271      -1.82325010      -0.51646636      -0.57285663       1.73965177
He       5.54778957       4.52775288       8.27774048      -1.24935214       3.51670421      -1.89821822      -2.12422208
X        4.33773470       5.34816837       9.70010567       0.67896761      -5.50550728      -0.33499591       4.75656911
H        4.25942659       6.99261093      11.46685696      -1.77221223      -0.60463790      -0.90494607      -0.37639482
He       4.42070150       6.99663115       8.24166489      -1.42616905      -3.04904455       1.11981304      -1.92800576
27
Lattice="8.913963317871094 0.0 0.0 -4.676674842834473 8.108978271484375 0.0 0.0 0.0 100.0" Properties=species:S:1:pos:R:3:energies:R:1:forces:R:3 original_dataset_index=2 energy=-25.63891784614393 pbc="F F F"
X        0.77384341       0.45631468      10.05185986       0.45657797       1.29666721      -0.65106424      -0.74435029
H        0.79559529       2.34602237      11.55108547      -1.56081281      -3.17360743      -2.62457440       2.69982557
He       0.89530420       2.10836172       8.55839252      -1.37765148      -4.35784068      -0.73902010      -3.92432208
X       -0.74814445       3.14199543      10.08836937       0.53293212      -0.82930525       0.90895517      -3.50353949
H       -0.90358615       5.06544781      11.61182404      -1.83093851      -0.77254917      -1.77935977       0.08560907
He      -0.93922776       5.04845333       8.35510254      -1.63211961       0.73273626      -1.74814508       0.99683630
X       -2.43624306       5.68495750       9.93769169       0.23329708       1.30013601       3.37069601      -0.40102986
H       -2.44883776       7.56626654      11.52970982      -1.81243555      -0.22543127      -0.57670848       1.76919829
He      -2.32393265       7.60288572       8.54413986      -1.55125778       0.06556367       0.34151647      -0.17448127
X        3.82342792       0.44048259      10.24693584       0.49654977      -3.89068772       1.69708885      -8.98341475
H        3.47948265       2.26577258      11.61064434      -1.85129066       1.54986522       0.46659100       0.51148632
He       3.80905771       2.14922333       8.35842228      -1.41227270      -2.02902168      -0.36311377       1.28768078
X        1.98769784       3.01720095       9.97900772       0.82626911       7.46091979       4.21728470       2.17908538
H        1.98765600       4.77270412      11.75634861      -1.71011168       0.48977967       1.10954865      -2.29545950
He       1.88532543       4.96774721       8.63409424      -1.56200962       0.77049072      -0.75551235      -3.65421997
X        0.48507380       5.89708853      10.07117176       0.29874202       0.95243778       1.35610380      -0.19556825
H        0.34413245       7.72039413      11.57887268      -1.19919084       4.45701961      -1.96964485       4.58842072
He       0.56971812       7.69740772       8.24365044      -1.35262655      -0.16308610      -0.69887106       2.41195917
X        6.69056320       0.38858727      10.02807045       0.41454792      -0.52177926      -0.06054792      -2.13092344
H        6.67024374       2.20652151      11.49012566      -1.88183888      -1.02521129       0.28633925       1.82252802
He       6.50618124       2.12583399       8.47489166      -1.62804196       1.65062854       1.10797672      -0.26844743
X        5.01607418       3.24278831       9.93038940       0.32676415       1.06269448      -1.73614825       1.10188911
H        5.14188147       4.92713785      11.45623779      -1.81613393      -2.01660217      -0.24980596       1.46031717
He       4.98768044       4.98143816       8.26005173      -1.86845340      -0.40531793      -0.59390354       0.65275864
X        3.54682851       5.83047342       9.93722534       0.51849511      -0.36122958      -0.74806238       1.11066018
H        3.56827736       7.52769995      11.39132023      -1.87806094      -0.81020639       0.47090835       4.64099304
He       3.63988662       7.68411255       8.46053314      -1.81784619      -1.20706469      -0.03852638      -1.04349147
27
Lattice="9.35168170928955 0.0 0.0 -5.103549480438232 8.335490226745605 0.0 0.0 0.0 100.0" Properties=species:S:1:pos:R:3:energies:R:1:forces:R:3 original_dataset_index=3 energy=-28.268546064666634 pbc="F F F"
X        0.67860574       0.50587827      10.02767754       0.42962862      -2.04177769      -3.10927503       0.29419931
H        0.48191553       2.14093852      11.52878952      -1.95444352      -0.09968876       1.84000412       0.49708453
He       0.45482931       2.06853223       8.40332985      -1.82983107       0.38949588       1.66586787      -1.24405464
X       -0.97568244       3.24671388       9.87284946       0.52411300      -0.85109756      -0.37187132       3.48554927
H       -1.21068931       5.06972980      11.67529774      -1.87781929      -0.64664996      -0.69192723      -1.51748554
He      -1.19102645       5.13815880       8.48909664      -1.77671821      -0.14127369      -0.87316348      -3.23886997
X       -2.71062779       6.05135727       9.92020988       0.57921720      -1.07035364       0.95294825       3.52446351
H       -2.86302376       7.91716719      11.67059708      -1.96938163       0.32739650      -0.53911949      -1.84421964
He      -3.14044142       7.94637918       8.38085747      -1.61639786       2.62954079      -0.75871925       0.31678995
X        3.89108324       0.38910943      10.00223732       0.69169796      -3.66841017       2.10478635       2.48364506
H        3.76146150       2.41960168      11.56919384      -1.89917289      -0.92945500      -1.05775488      -0.92251802
He       3.53607750       2.31529212       8.48666286      -1.78662609       1.40854843      -0.29686085      -0.65874127
X        1.92767429       3.11113620       9.93457508       0.69731195       1.54334677       2.26227952       1.60516654
H        2.01595592       5.09241056      11.59316921      -1.96065157      -0.81798720      -1.30024307      -0.83536864
He       1.89274204       5.27216768       8.38491917      -1.72590400       0.02715322      -1.89920093       0.36323243
X        0.27169347       5.78582668      10.02324390       0.62252231       2.38455117       4.18329006       1.82117937
H        0.27069378       7.85884285      11.68685341      -1.84590329       0.64818227      -0.65976216      -2.11720573
He       0.11628816       7.86493921       8.49842930      -1.66824000       1.69137938      -1.55100115      -1.58332246
X        6.93338919       0.46458498       9.87283325       0.56813288      -1.37223011       0.46170942       2.85332185
H        6.93543053       2.33217001      11.59029961      -1.87116812      -0.92976722      -0.14728854      -1.84978318
He       6.79729033       2.37511754       8.40148926      -1.92687085      -0.74218096      -0.13388269      -0.49418709
X        5.21956539       3.36631536      10.00203991       0.46716175       0.37968691      -3.13815860      -1.74277262
H        5.09961224       4.97066832      11.44069958      -1.90511621       0.47848138       2.32249364       2.52435313
He       5.08269119       5.14315176       8.45591927      -1.99611638      -0.03736258      -0.31802548      -1.21576959
X        3.51464820       5.95339060      10.00440693       0.47032349      -0.71530947       1.70698541      -0.77269295
H        3.22616649       7.87172365      11.57604408      -1.96543707       1.27583754      -0.35471868      -1.09581899
He       3.31161642       7.82839251       8.31314564      -1.74285717       0.87994372      -0.29939138       1.36382573
27
Lattice="10.797208786010742 0.0 0.0 -4.724135398864746 7.946281433105469 0.0 0.0 0.0 100.0" Properties=species:S:1:pos:R:3:energies:R:1:forces:R:3 original_dataset_index=4 energy=-24.096324592256263 pbc="F F F"
X        0.89635944       0.49482745      10.00132751       0.58442336       0.68866165      -1.22113425       0.32792226
H        1.01863348       2.21678567      11.75346947      -1.61416814      -0.30182917       0.30604120      -1.97528160
He       1.05528247       2.17410874       8.37143326      -1.73812035       0.06160508       0.88666414       0.58474930
X       -0.71697247       2.96667886       9.97777081       0.78583162      -0.16078765      -0.64093547       2.66489477
H       -0.60586917       4.88332272      11.58542061      -1.79002092      -0.15594818       0.09127611      -1.60914569
He      -0.53394252       4.66651249       8.48186207      -1.56842027      -0.22056391       2.08518495       0.22317759
X       -2.44063997       5.89234257       9.90943336       0.80834594       1.34797680      -3.32592551       1.20306453
H       -2.11487746       7.55680037      11.50913811      -2.01281776      -0.16394957       0.60629248       0.28727551
He      -1.92251325       7.57371092       8.41393089      -1.78374286      -0.89884167       0.85717234      -0.33444248
X        4.45161915       0.37257066      10.01326180       0.86473073       1.21930394       0.83344913       0.18186910
H        4.72418594       2.34870720      11.60035419      -1.91536468      -0.92342004      -0.70849326      -1.36212901
He       4.55180550       2.32586026       8.38360596      -1.79665423       1.16728109      -1.37598069       0.39727103
X        2.98406887       3.16847873       9.84058857       0.82032491      -1.04691360      -2.28140139       3.48003768
H        3.21960139       4.80168819      11.69343758      -1.75137363      -0.06146311       0.73447500      -2.19935023
He       3.15023470       4.70387745       8.25871849      -1.51787049      -0.17193621       2.50460379       0.22889630
X        1.36554575       5.65560055      10.09983921       0.88687445       0.21094577      -0.82115523      -1.72126743
H        1.53905356       7.37906647      11.68450832      -1.62956968      -0.19977811       1.32182134      -1.46884458
He       1.75011742       7.54186678       8.24862576      -1.52224306      -0.60069573      -0.25419689       2.12368972
X        8.11897087       0.54141957       9.89197636       0.92472635       0.28646435      -4.06513418       3.36552256
H        8.11973095       2.18748331      11.69419384      -1.78550991      -0.01393319       0.62858276      -2.07288079
He       8.16635799       2.19737554       8.52999783      -1.59569688       0.10786199       2.36270306      -1.95268112
X        6.33095980       3.08814430       9.99717426       0.61150794       1.69625105      -0.09831652      -0.29749772
H        6.66630363       4.88119555      11.57766628      -1.86956530      -0.19019318       0.63302754      -1.60550921
He       6.84745693       4.88303328       8.24653149      -1.76241731      -0.99030200      -0.05692647       1.50829973
X        4.94033766       5.64073277       9.84764862       0.82343960       0.46558004      -1.26707176       2.14085346
H        5.19438410       7.47565174      11.47969055      -1.88067805      -0.51932053       0.38571879      -0.78139068
He       5.25336790       7.42311668       8.47724724      -1.67229595      -0.63205590       1.87965941      -1.33710256
27
Lattice="9.458852767944336 0.0 0.0 -4.708427429199219 8.432708740234375 0.0 0.0 0.0 100.0" Properties=species:S:1:pos:R:3:energies:R:1:forces:R:3 original_dataset_index=5 energy=-28.682994365435146 pbc="F F F"
X        0.74791241       0.33533147       9.98592186       0.46330789      -0.37610288       0.51652989       1.50543286
H        0.96857041       2.14405036      11.57516289      -1.89700764      -0.94290288       1.07278526      -0.26035181
He       0.62332231       2.30962300       8.63421822      -1.63022092       1.07974073       0.14229648      -3.36428675
X       -0.76474065       3.35159874      10.07071972       0.72815906      -1.61210402      -1.39217581       1.35417158
H       -0.74338067       5.26246595      11.58263779      -2.10537483       0.36380222      -1.03647046      -0.23441443
He      -0.94357163       5.14242554       8.39745426      -1.82794238       1.97345883      -1.57268157      -1.35566804
X       -2.27457595       5.92007446       9.94678116       0.59956230      -3.19238538       2.82052353       2.48401037
H       -2.29434681       8.07487392      11.49853420      -1.63828968      -1.70611365      -2.78693043       2.00332890
He      -2.46772861       7.80063629       8.45688629      -1.88189769       1.00339671       0.17174631      -0.21505309
X        3.83385921       0.35000309      10.06576538       0.50423938       2.24835273       1.92536407      -2.88212240
H        3.89961147       2.37261319      11.52928162      -2.01155427       0.31518717      -0.11680566      -0.27684870
He       3.81289005       2.19514155       8.43514633      -1.80025442       0.85102146       0.33282758       0.27856354
X        2.38088870       3.31683373       9.93483734       0.55553324      -0.17224896      -1.49291171       1.34300638
H        2.38247871       5.14624023      11.40544701      -2.08152268      -0.80443567      -0.53109703       2.05246524
He       2.40849924       5.10627651       8.42321873      -2.02212220      -0.04365002      -0.24399447      -2.20067636
X        0.76684433       5.88362885       9.85292530       0.81553475       0.03014008       2.83577619       1.58176310
H        0.86438400       8.09737396      11.69363213      -1.66544816      -0.45422835      -0.60461286      -1.79292716
He       0.65789539       7.89504814       8.37001896      -1.77614653       0.82611565      -0.06840210       1.40405453
X        7.13745356       0.52237552       9.95221138       0.44760488      -1.55815248      -1.83474651      -0.17813502
H        7.10448456       2.20130301      11.63295650      -1.99629174       0.09787288       1.53661320      -1.17254549
He       6.91497755       2.24622011       8.43909454      -1.72391650       1.43090148       1.24983518      -0.19041254
X        5.53835964       3.33085632       9.99668694       0.53128471      -1.06194713      -2.56405384       1.20056574
H        5.44293690       5.15291595      11.54131699      -2.09153409       0.68541595       0.12292960      -0.04116474
He       5.60340261       4.97765493       8.42017555      -1.83654350      -0.81125257       1.30498580      -0.08201311
X        3.89215612       6.04769707       9.97453499       0.48904206       1.54143191       1.20908081      -1.92267255
H        3.74520707       7.92267179      11.55897331      -1.98327187       1.59193339      -0.52637736      -0.40757900
He       4.07950926       7.95947886       8.30636787      -1.84792350      -1.30324680      -0.47003354       1.36950916
27
Lattice="8.86329174041748 0.0 0.0 -4.973175048828125 7.855757236480713 0.0 0.0 0.0 100.0" Properties=species:S:1:pos:R:3:energies:R:1:forces:R:3 original_dataset_index=6 energy=-25.931158054265854 pbc="F F F"
X        0.93555677       0.33658174       9.88046455       0.79361935      -5.79647303       1.26301675       4.40281094
H        0.43506089       2.05114198      11.74446106      -1.79221945       0.76672825       0.07566067      -1.54431526
He       0.58891875       2.24857998       8.64468861      -1.56348935       1.23531401      -0.30524567      -3.60237324
X       -0.98770040       3.04275918      10.00354576       0.35590749       0.70204462       0.84036686       2.95912565
H       -0.84295219       4.87877655      11.52858925      -1.31943989      -3.93868009      -1.84002500       2.82716903
He      -1.00688052       4.69434834       8.35238457      -1.61666819      -0.36504816       1.03061721       1.52542272
X       -2.56630397       5.70289278      10.04293728       0.29651921       0.95983906      -1.57181799      -0.45806425
H       -2.71569657       7.46188211      11.61322880      -1.87272873       0.48669851      -0.68160473      -0.14010415
He      -2.67552638       7.37120342       8.46500683      -1.67986203       1.98756777      -0.28864825      -1.98374196
X        3.69400716       0.55735570      10.07810879       0.34088466       1.72607822      -4.54797606       0.73991199
H        3.60740852       2.17067957      11.66530991      -1.92157626      -0.72366284       0.63052088       1.16715215
He       3.60157824       2.03537083       8.55013466      -1.39796835      -2.17299639       1.79973947      -1.68059534
X        2.06850696       3.04017735      10.21014023       0.50779875      -1.16817914      -1.65196385      -5.01195143
H        1.86522830       4.74228811      11.44191265      -1.32084084       0.39490520       1.87668146       6.29313904
He       2.01337552       4.83714247       8.44752407      -1.34723018      -1.53983595      -1.04696996       1.31357798
X        0.34500805       5.75113916      10.12797928       0.18816265       2.59053649       0.28246089      -5.82590507
H        0.22010478       7.51917887      11.73936749      -1.80620347       0.02501371      -0.16066813      -1.26954577
He       0.40148851       7.37013912       8.50766087      -1.50506875      -1.97912087       0.90031172      -0.04458329
X        6.72643375       0.51513183      10.01674080       0.07126119      -0.16292076      -1.36145349       0.18900473
H        6.49877834       2.00638866      11.71332169      -1.55876662      -0.84714275       2.17442341      -1.05673254
He       6.45324993       2.23431444       8.43041706      -1.69568392      -0.35588018      -0.56449704      -0.12684603
X        4.88182020       3.03170848       9.99855042       0.34748098       4.01250123       0.64734328       2.66383457
H        4.91532087       4.75376081      11.72234726      -1.87168350      -0.71064845       0.28650357      -1.54235714
He       4.84373760       4.61523724       8.38416767      -1.55807997      -0.33141688       1.99963882       0.98993285
X        3.32471108       5.72573805      10.06711769       0.29862679       2.57776400      -0.18267541      -1.51210214
H        3.12901497       7.46228552      11.66436863      -1.69709961       1.28492599      -0.11063061      -1.03424496
He       3.09800839       7.36752272       8.25553894      -1.60681000       1.34208757       0.50689087       1.76237994
27
Lattice="9.662663459777832 0.0 0.0 -4.85795259475708 8.334839820861816 0.0 0.0 0.0 100.0" Properties=species:S:1:pos:R:3:energies:R:1:forces:R:3 original_dataset_index=7 energy=-26.235784369655256 pbc="F F F"
X        0.81956494       0.69634950      10.05811119       1.01533586      -0.33429127      -6.40755730      -1.82093231
H        0.63767397       2.24827003      11.50368690      -1.64921103       1.15959010       3.37359333       2.59402152
He       0.89686620       2.24877334       8.41759777      -1.82505255      -0.43307611       2.36332223      -0.02358328
X       -0.74714518       3.40418053      10.01025772       0.62584846      -1.16362083      -2.93979245      -1.75837034
H       -0.73758203       5.19822979      11.47351074      -1.96152553      -0.84771323      -0.91045955       2.71463091
He      -0.94248265       5.08044481       8.37311649      -1.90823794       0.65037488       0.47729139       0.77461240
X       -2.45616317       5.95259714      10.03644466       0.38548458      -0.26442479       0.62413533      -1.26981334
H       -2.36292505       7.75696421      11.68980312      -1.85372159      -0.38620033       1.21302487      -1.68184486
He      -2.41761780       7.72286081       8.45812225      -1.73530864      -0.27549961       1.66928912       0.71058762
X        3.99455476       0.58639902       9.99541473       0.70562512       0.43167365      -4.22975654       1.21136236
H        4.12334251       2.14092350      11.56096935      -1.75899084      -1.75208298       1.88980957       1.75486733
He       4.09172058       2.35452533       8.55687618      -1.87006225      -1.28181370       0.89558817      -1.61677970
X        2.35684633       3.44429231       9.99117184       0.81933628       0.63295024      -5.99876173       0.73702021
H        2.42505598       5.02598524      11.50309658      -1.89439928      -0.21527317       1.83358252       2.16989378
He       2.44040513       5.03526115       8.48841381      -1.70144483       0.12815111       2.36493165      -0.76701456
X        0.75138420       5.98787069      10.02082062       0.46904994       1.14785240       1.21034556      -2.13091262
H        0.76638550       7.73245478      11.71222305      -1.93456115      -0.63033697       0.63022482      -1.88391405
He       0.88221180       7.97584677       8.55396271      -1.59354075      -3.11800395      -1.63850717      -2.51758611
X        7.08039618       0.35899210       9.98744488       0.69845668       3.94419545       1.02633905       4.12145167
H        7.14972639       2.34458828      11.54248047      -1.88776113       0.82358949      -0.29436096       0.31001132
He       7.23577929       2.17226338       8.56152439      -1.68494440      -0.32724885       1.43711425      -0.53384000
X        5.51772499       3.19825172      10.11795998       0.77902836       2.12158592       1.79141686      -2.28720332
H        5.51361036       5.21716213      11.57222557      -1.87186125       1.70383298      -1.69201025       2.02451180
He       5.55947256       5.30135298       8.28777790      -1.58111288       0.45299773      -1.01215111       2.15529475
X        4.12703943       6.06636047      10.11962891       0.44300417      -2.97471369      -0.21321673      -5.18638707
H        3.87107658       7.76928520      11.60397434      -1.83174058       0.52981317       1.89803959      -0.11189258
He       3.88599777       7.80287743       8.32140827      -1.63347720       0.27769335       0.63852460       2.31180810
27
Lattice="9.491578102111816 0.0 0.0 -4.892338752746582 8.241594314575195 0.0 0.0 0.0 100.0" Properties=species:S:1:pos:R:3:energies:R:1:forces:R:3 original_dataset_index=8 energy=-28.34303934041942 pbc="F F F"
X        0.89837027       0.46181938       9.96041584       0.44416098      -2.53209431      -0.59331206       1.11771150
H        0.83078545       2.19841361      11.65182972      -1.99768133      -0.14220907       0.20750118      -1.56027817
He       0.77748173       2.25949097       8.33101082      -1.84865242       0.06847985       0.04330298       1.48551898
X       -0.81260723       3.10345268      10.05423069       0.48662616       0.25557084      -0.11199787      -0.25326097
H       -0.81223893       4.94013023      11.65534210      -1.99352802      -1.02896150       0.13058652      -1.56076147
He      -0.85472322       5.00622940       8.54980373      -1.81673340       0.49824584      -1.33933807      -3.14370290
X       -2.50166488       5.77478313       9.85046482       0.82350212       0.80857062       2.51122087       4.83056988
H       -2.61282349       7.79100704      11.60568714      -1.84104728       1.29409973      -1.06323074      -1.37133621
He      -2.50754213       7.69689798       8.48151207      -1.85805391       1.12320083       0.36757630      -1.40468300
X        4.01007891       0.49353549      10.03738689       0.58327724      -1.77123227      -1.86122136       2.17974908
H        3.99013042       2.14205074      11.59043407      -2.04637111      -0.05709059       1.72344797      -0.17922608
He       4.00498390       2.19477367       8.39212227      -1.95572443       0.24438265       0.29764846       0.38056462
X        2.42191100       3.06039500       9.96460724       0.45473583      -0.73258241       0.44645125       2.08067557
H        2.10932660       4.98295593      11.66899014      -1.88208588       1.85105044      -0.82896013      -1.36205554