27
Lattice="9.811128616333008 0.0 0.0 -4.528778076171875 8.422697067260742 0.0 0.0 0.0 100.0" Properties=species:S:1:pos:R:3:energies:R:1:forces:R:3 original_dataset_index=0 energy=-27.075003440087816 pbc="F F F"
X        0.83472985       0.29282984      10.07725906       0.77415393      -0.43609155       2.79387055       1.89418963
H        0.87171096       2.34922671      11.64810085      -1.95333356       0.16189988      -0.94875537      -0.73921911
He       0.86545634       2.26451945       8.18193626      -1.44961393       0.10329572       0.04430329       3.09977497
X       -0.77480644       3.16883373      10.12756252       0.61306931       1.77648674       1.96043513      -3.02424982
H       -0.62070400       5.19333458      11.81220150      -1.89079198      -0.19034527      -0.77685520      -1.87250695
He      -0.51218605       5.05976200       8.40774059      -1.75000240      -0.13191805       0.10772356       2.34980277
X       -2.18696141       6.01182938      10.01462173       0.58411541       0.11731793      -0.97057732       1.19607020
H       -1.92230427       7.88123798      11.57541370      -2.01562639      -1.56128755      -0.54886755       1.11665482
He      -2.15987778       7.89304924       8.62920570      -1.86637998       0.31224501      -0.49328870      -3.16958601
X        4.02889585       0.32255852      10.04670334       0.46681758       1.39039833       1.68145200      -1.13018032
H        4.12432289       2.25078487      11.55626202      -2.01684660      -0.74798364      -0.13801952       0.25156343
He       4.18692398       2.16217756       8.42734337      -1.80065464      -0.44576410       0.36227724       1.53460513
X        2.42883730       3.27767158      10.02679825       0.65432094       1.32198739      -1.77893723      -0.49830050
H        2.79050684       5.17031860      11.55550194      -1.95872099      -0.09937360      -0.26899848       0.73837634
He       2.85467458       4.96361017       8.50356865      -1.57632405      -0.82443081       1.61060102       0.25697375
X        1.02212048       6.04715109      10.20094681       0.68307671       0.62825273      -0.34466060      -2.57448930
H        1.05539882       8.00459957      11.58765030      -1.97477718       1.38540740      -0.16573948      -0.00436249
He       1.29158020       7.83793068       8.53726864      -1.77024139      -1.71405057      -0.94564081      -1.57575789
X        7.37255144       0.37677875       9.85935688       0.78336918       0.15513161       2.10906515       5.20964257
H        7.59042501       2.22612071      11.57322693      -1.89060052      -1.73507232      -1.16619699       0.32189268
He       7.52220058       2.40506291       8.32233429      -1.80370190      -0.90323193      -0.45921503       2.02258361
X        5.79919147       3.11027217      10.10192680       0.81749313       0.91054962       1.61200426      -1.94673201
H        6.10283041       5.16892576      11.81806374      -1.77743141      -0.64128706      -0.38519558      -2.58035790
He       5.77532625       5.12753248       8.38165760      -1.66745202       1.56420675      -0.69993799       1.59072802
X        4.49017525       6.13691616      10.04595852       0.51025339      -1.12830232      -0.67426263       0.27937026
H        4.36249113       7.85818481      11.65229511      -2.01129325       0.15671715       0.70893619      -1.34488790
He       4.50332785       8.12986565       8.47154522      -1.78788083       0.57524196      -2.22552041      -1.40159749
27
Lattice="9.261323928833008 0.0 0.0 -4.267256736755371 7.4276838302612305 0.0 0.0 0.0 100.0" Properties=species:S:1:pos:R:3:energies:R:1:forces:R:3 original_dataset_index=1 energy=-21.603514223480186 pbc="F F F"
X        0.60360032       0.37843621       9.81891251       0.94244837       5.47343002      -0.75348076       5.56221273
H        0.91911787       2.02201366      11.54952526      -1.79945858       0.61977974       0.17117660      -1.55588502
He       1.03128731       1.97053099       8.50017738      -1.07304818      -2.74650112       0.56153009      -7.45635745
X       -0.51454157       2.93493199       9.88790607       0.39860778      -1.08568720      -2.24823046       3.32391254
H       -0.52815944       4.56262445      11.50951958      -1.80140753       0.83250856      -0.19173408       1.19777132
He      -0.38908303       4.44274330       8.21565628      -1.41290781       0.09710048       1.41785463       0.86106293
X       -1.94773889       5.20902634       9.90304756       0.42878969      -1.02738075       2.45642801      -1.90793577
H       -1.78727162       7.04925013      11.81041813      -1.38637950      -0.20641782       0.01949138      -2.98641063
He      -1.95886540       6.96653175       8.38280678      -1.48159254       0.80646921       0.76613758       0.59131631
X        4.09290600       0.58632421       9.93478298       0.65239640      -2.71053125      -6.48949021      -0.70493345
H        4.10207272       2.17888761      11.41976833      -1.58777342      -1.05722239       0.97561120       1.09925030
He       4.12575388       2.00502849       8.18958092      -1.64285227      -1.11154779       0.70186656      -0.84292138
X        2.47131586       2.79216981       9.73142815       0.60450115       2.22331497       0.80461172       6.08414898
H        2.59809399       4.47816944      11.43465233      -1.62149728       1.68646922       0.01784417      -0.19796732
He       2.48775744       4.50360489       8.22261143      -1.54730178       1.08858614       0.67290291       0.37375969
X        1.10853696       5.39278936      10.06683636       0.49660222      -1.27913753      -5.26850414      -4.20014737
H        1.17037940       6.91255856      11.45561218      -1.45759145       0.95913562       3.96548704       2.96310028
He       1.13867974       6.71359682       8.36565208      -1.14899231       0.69345231       4.38625026      -0.19686989
X        7.04564285       0.53554255       9.97141933       0.46164664      -0.57430384      -7.45785643      -3.43829608
H        7.07759905       1.85945809      11.53759098      -1.06437493       0.48808716       4.48755664       1.05624094
He       7.05558968       2.15078330       8.46797562      -1.40344320       1.93942709      -0.22194102      -3.86691847
X        5.54956150       2.72385907       9.82791042       0.43425864       1.05236078       3.81741354       2.17391067
H        5.77418184       4.48675108      11.30256271      -1.82286472      -0.51597218      -0.57296267       1.74142485
He       5.54778957       4.52775288       8.27774048      -1.25027472       3.51672911      -1.89728042      -2.12678679
X        4.33773470       5.34816837       9.70010567       0.67952375      -5.50593197      -0.33403122       4.76029265
H        4.25942659       6.99261093      11.46685696      -1.77309959      -0.60571521      -0.90546133      -0.37620380
He       4.42070150       6.99663115       8.24166489      -1.42742907      -3.05050277       1.11880906      -1.93077125
27
Lattice="8.913963317871094 0.0 0.0 -4.676674842834473 8.108978271484375 0.0 0.0 0.0 100.0" Properties=species:S:1:pos:R:3:energies:R:1:forces:R:3 original_dataset_index=2 energy=-25.654895987416555 pbc="F F F"
X        0.77384341       0.45631468      10.05185986       0.45711839       1.29854672      -0.65039583      -0.74292592
H        0.79559529       2.34602237      11.55108547      -1.56073085      -3.17397224      -2.62485090       2.70079596
He       0.89530420       2.10836172       8.55839252      -1.37945711      -4.35841833      -0.73822627      -3.92653583
X       -0.74814445       3.14199543      10.08836937       0.53303125      -0.83014065       0.90867905      -3.50345093
H       -0.90358615       5.06544781      11.61182404      -1.83172171      -0.77142003      -1.77799628       0.08585834
He      -0.93922776       5.04845333       8.35510254      -1.63346021       0.73265210      -1.74878161       0.99534110
X       -2.43624306       5.68495750       9.93769169       0.23293177       1.30250763       3.37061450      -0.39980599
H       -2.44883776       7.56626654      11.52970982      -1.81244706      -0.22647855      -0.57773767       1.76963455
He      -2.32393265       7.60288572       8.54413986      -1.55258115       0.06581698       0.34180178      -0.17501988
X        3.82342792       0.44048259      10.24693584       0.49612081      -3.88947858       1.69869060      -8.98755593
H        3.47948265       2.26577258      11.61064434      -1.85189108       1.54917700       0.46841745       0.51174841
He       3.80905771       2.14922333       8.35842228      -1.41400934      -2.02903099      -0.36472436       1.28896024
X        1.98769784       3.01720095       9.97900772       0.82588367       7.46302107       4.21752044       2.18081532
H        1.98765600       4.77270412      11.75634861      -1.71025408       0.49044896       1.10870104      -2.29649908
He       1.88532543       4.96774721       8.63409424      -1.56368930       0.77002540      -0.75590949      -3.65571190
X        0.48507380       5.89708853      10.07117176       0.29809643       0.95136386       1.35539972      -0.19503359
H        0.34413245       7.72039413      11.57887268      -1.19941769       4.45722742      -1.96960648       4.58902856
He       0.56971812       7.69740772       8.24365044      -1.35325939      -0.16403887      -0.69814636       2.41382974
X        6.69056320       0.38858727      10.02807045       0.41414122      -0.52221155      -0.06202818      -2.13219800
H        6.67024374       2.20652151      11.49012566      -1.88192839      -1.02528727       0.28596699       1.82392674
He       6.50618124       2.12583399       8.47489166      -1.62916594       1.64923309       1.10925630      -0.26941829
X        5.01607418       3.24278831       9.93038940       0.32538229       1.06413710      -1.73536744       1.10279999
H        5.14188147       4.92713785      11.45623779      -1.81615405      -2.01690848      -0.25148226       1.45969021
He       4.98768044       4.98143816       8.26005173      -1.86892790      -0.40653528      -0.59335841       0.65204683
X        3.54682851       5.83047342       9.93722534       0.51778223      -0.36183139      -0.74574398       1.11340578
H        3.56827736       7.52769995      11.39132023      -1.87789376      -0.80928004       0.46905869       4.64067100
He       3.63988662       7.68411255       8.46053314      -1.81839503      -1.20912321      -0.03975138      -1.04439877
27
Lattice="9.35168170928955 0.0 0.0 -5.103549480438232 8.335490226745605 0.0 0.0 0.0 100.0" Properties=species:S:1:pos:R:3:energies:R:1:forces:R:3 original_dataset_index=3 energy=-28.282469200261108 pbc="F F F"
X        0.67860574       0.50587827      10.02767754       0.42868478      -2.04142596      -3.11071915       0.29351945
H        0.48191553       2.14093852      11.52878952      -1.95473348      -0.09946229       1.84037056       0.49704374
He       0.45482931       2.06853223       8.40332985      -1.83037249       0.38866740       1.66665623      -1.24562255
X       -0.97568244       3.24671388       9.87284946       0.52475481      -0.85186969      -0.37154973       3.48683112
H       -1.21068931       5.06972980      11.67529774      -1.87789376      -0.64758085      -0.69218360      -1.51719458
He      -1.19102645       5.13815880       8.48909664      -1.77773828      -0.14138904      -0.87197547      -3.23932560
X       -2.71062779       6.05135727       9.92020988       0.57869917      -1.07014608       0.95505897       3.52390070
H       -2.86302376       7.91716719      11.67059708      -1.96964794       0.32718856      -0.53953726      -1.84557017
He      -3.14044142       7.94637918       8.38085747      -1.61708571       2.63013731      -0.76051378       0.31890378
X        3.89108324       0.38910943      10.00223732       0.69098445      -3.66900669       2.10438192       2.48332101
H        3.76146150       2.41960168      11.56919384      -1.89932844      -0.93058917      -1.05888389      -0.92183521
He       3.53607750       2.31529212       8.48666286      -1.78766579       1.40908407      -0.29549289      -0.65921854
X        1.92767429       3.11113620       9.93457508       0.69747712       1.54338715       2.26179269       1.60638940
H        2.01595592       5.09241056      11.59316921      -1.96052402      -0.81919314      -1.29981788      -0.83604554
He       1.89274204       5.27216768       8.38491917      -1.72671947       0.02753162      -1.89995872       0.36267343
X        0.27169347       5.78582668      10.02324390       0.62220191       2.38492000       4.18336730       1.82240990
H        0.27069378       7.85884285      11.68685341      -1.84582530       0.64892333      -0.66054719      -2.11699490
He       0.11628816       7.86493921       8.49842930      -1.66840756       1.69078550      -1.55077497      -1.58329906
X        6.93338919       0.46458498       9.87283325       0.56679115      -1.37304023       0.46313817       2.85483693
H        6.93543053       2.33217001      11.59029961      -1.87173426      -0.92918661      -0.14683589      -1.85060362
He       6.79729033       2.37511754       8.40148926      -1.92819937      -0.74217278      -0.13606789      -0.49426578
X        5.21956539       3.36631536      10.00203991       0.46626294       0.38163281      -3.13804514      -1.74349494
H        5.09961224       4.97066832      11.44069958      -1.90560895       0.47790121       2.32196203       2.52499041
He       5.08269119       5.14315176       8.45591927      -1.99684989      -0.03747658      -0.31749988      -1.21704013
X        3.51464820       5.95339060      10.00440693       0.46994560      -0.71425864       1.70821694      -0.77185585
H        3.22616649       7.87172365      11.57604408      -1.96605894       1.27492867      -0.35501587      -1.09623600
He       3.31161642       7.82839251       8.31314564      -1.74387749       0.88171051      -0.29952554       1.36378221
27
Lattice="10.797208786010742 0.0 0.0 -4.724135398864746 7.946281433105469 0.0 0.0 0.0 100.0" Properties=species:S:1:pos:R:3:energies:R:1:forces:R:3 original_dataset_index=4 energy=-24.108010020407526 pbc="F F F"
X        0.89635944       0.49482745      10.00132751       0.58438235       0.68855108      -1.22164058       0.32929843
H        1.01863348       2.21678567      11.75346947      -1.61477170      -0.30103351       0.30574511      -1.97579485
He       1.05528247       2.17410874       8.37143326      -1.73824954       0.06199238       0.88774472       0.58418750
X       -0.71697247       2.96667886       9.97777081       0.78614447      -0.16132577      -0.64093610       2.66570338
H       -0.60586917       4.88332272      11.58542061      -1.79053071      -0.15553384       0.09131547      -1.60906468
He      -0.53394252       4.66651249       8.48186207      -1.56905579      -0.22067989       2.08556648       0.22322907
X       -2.44063997       5.89234257       9.90943336       0.80770413       1.34748318      -3.32721114       1.20273118
H       -2.11487746       7.55680037      11.50913811      -2.01282619      -0.16426776       0.60668534       0.28755327
He      -1.92251325       7.57371092       8.41393089      -1.78477118      -0.89882828       0.85762998      -0.33478385
X        4.45161915       0.37257066      10.01326180       0.86481577       1.21965490       0.83464613       0.18262712
H        4.72418594       2.34870720      11.60035419      -1.91633054      -0.92297353      -0.70928917      -1.36358836
He       4.55180550       2.32586026       8.38360596      -1.79794495       1.16731921      -1.37546292       0.39792693
X        2.98406887       3.16847873       9.84058857       0.82060103      -1.04732828      -2.28375275       3.48084504
H        3.21960139       4.80168819      11.69343758      -1.75176277      -0.06144448       0.73486590      -2.19984486
He       3.15023470       4.70387745       8.25871849      -1.51863853      -0.17095300       2.50597144       0.22832319
X        1.36554575       5.65560055      10.09983921       0.88670035       0.21036107      -0.82100283      -1.72106553
H        1.53905356       7.37906647      11.68450832      -1.63007947      -0.19914841       1.32212325      -1.46957821
He       1.75011742       7.54186678       8.24862576      -1.52293563      -0.60105286      -0.25451634       2.12448977
X        8.11897087       0.54141957       9.89197636       0.92407561       0.28657537      -4.06596770       3.36655232
H        8.11973095       2.18748331      11.69419384      -1.78625518      -0.01343414       0.62873780      -2.07336385
He       8.16635799       2.19737554       8.52999783      -1.59618000       0.10730442       2.36285251      -1.95362747
X        6.33095980       3.08814430       9.99717426       0.61089984       1.69563063      -0.09903615      -0.29726387
H        6.66630363       4.88119555      11.57766628      -1.86923169      -0.18904282       0.63328737      -1.60639330
He       6.84745693       4.88303328       8.24653149      -1.76323674      -0.99131893      -0.05684900       1.50932144
X        4.94033766       5.64073277       9.84764862       0.82344186       0.46507130      -1.26783144       2.14023229
H        5.19438410       7.47565174      11.47969055      -1.88109877      -0.51928078       0.38635796      -0.78086448
He       5.25336790       7.42311668       8.47724724      -1.67287606      -0.63229774       1.87996647      -1.33778789
27
Lattice="9.458852767944336 0.0 0.0 -4.708427429199219 8.432708740234375 0.0 0.0 0.0 100.0" Properties=species:S:1:pos:R:3:energies:R:1:forces:R:3 original_dataset_index=5 energy=-28.700307806749727 pbc="F F F"
X        0.74791241       0.33533147       9.98592186       0.46343469      -0.37659955       0.51575726       1.50530102
H        0.96857041       2.14405036      11.57516289      -1.89729163      -0.94288829       1.07228435      -0.26073814
He       0.62332231       2.30962300       8.63421822      -1.63178085       1.07965318       0.14248829      -3.36538167
X       -0.76474065       3.35159874      10.07071972       0.72735234      -1.61412303      -1.39213971       1.35568276
H       -0.74338067       5.26246595      11.58263779      -2.10605274       0.36339232      -1.03628529      -0.23458256
He      -0.94357163       5.14242554       8.39745426      -1.82919989       1.97442771      -1.57283177      -1.35705028
X       -2.27457595       5.92007446       9.94678116       0.59897710      -3.19401996       2.82142724       2.48540518
H       -2.29434681       8.07487392      11.49853420      -1.63903829      -1.70612031      -2.78737901       2.00379585
He      -2.46772861       7.80063629       8.45688629      -1.88256271       1.00335866       0.17171676      -0.21482999
X        3.83385921       0.35000309      10.06576538       0.50388287       2.24837437       1.92596059      -2.88305882
H        3.89961147       2.37261319      11.52928162      -2.01175907       0.31634901      -0.11796679      -0.27768542
He       3.81289005       2.19514155       8.43514633      -1.80151149       0.85146721       0.33256237       0.27950408
X        2.38088870       3.31683373       9.93483734       0.55579577      -0.17219001      -1.49335287       1.34410168
H        2.38247871       5.14624023      11.40544701      -2.08163162      -0.80425609      -0.53157990       2.05312001
He       2.40849924       5.10627651       8.42321873      -2.02363854      -0.04227201      -0.24315359      -2.20121703
X        0.76684433       5.88362885       9.85292530       0.81465809       0.02912609       2.83645825       1.58140081
H        0.86438400       8.09737396      11.69363213      -1.66521324      -0.45284564      -0.60424064      -1.79364293
He       0.65789539       7.89504814       8.37001896      -1.77686942       0.82627880      -0.06791644       1.40531701
X        7.13745356       0.52237552       9.95221138       0.44596250      -1.55828016      -1.83580105      -0.17831755
H        7.10448456       2.20130301      11.63295650      -1.99613437       0.09881353       1.53739137      -1.17321158
He       6.91497755       2.24622011       8.43909454      -1.72470027       1.43136378       1.24827846      -0.19005795
X        5.53835964       3.33085632       9.99668694       0.53072014      -1.06255761      -2.56311440       1.20301421
H        5.44293690       5.15291595      11.54131699      -2.09212319       0.68535060       0.12236615      -0.04202535
He       5.60340261       4.97765493       8.42017555      -1.83779252      -0.81066278       1.30629318      -0.08315486
X        3.89215612       6.04769707       9.97453499       0.48823194       1.54134662       1.21112347      -1.92319485
H        3.74520707       7.92267179      11.55897331      -1.98321243       1.59183816      -0.52797216      -0.40849416
He       4.07950926       7.95947886       8.30636787      -1.84881098      -1.30432512      -0.47037470       1.37000064
27
Lattice="8.86329174041748 0.0 0.0 -4.973175048828125 7.855757236480713 0.0 0.0 0.0 100.0" Properties=species:S:1:pos:R:3:energies:R:1:forces:R:3 original_dataset_index=6 energy=-25.944653014538645 pbc="F F F"
X        0.93555677       0.33658174       9.88046455       0.79302949      -5.79879823       1.26337615       4.40321852
H        0.43506089       2.05114198      11.74446106      -1.79282389       0.76626847       0.07578904      -1.54333104
He       0.58891875       2.24857998       8.64468861      -1.56459258       1.23608325      -0.30447954      -3.60347721
X       -0.98770040       3.04275918      10.00354576       0.35634224       0.70361568       0.84057228       2.96053506
H       -0.84295219       4.87877655      11.52858925      -1.31953166      -3.93906955      -1.84006387       2.82836031
He      -1.00688052       4.69434834       8.35238457      -1.61755115      -0.36455617       1.03017599       1.52520924
X       -2.56630397       5.70289278      10.04293728       0.29637442       0.96054924      -1.57269088      -0.45799293
H       -2.71569657       7.46188211      11.61322880      -1.87312216       0.48737613      -0.68185695      -0.13873811
He      -2.67552638       7.37120342       8.46500683      -1.68098582       1.98824605      -0.28872920      -1.98671789
X        3.69400716       0.55735570      10.07810879       0.34148621       1.72833297      -4.54818085       0.73880373
H        3.60740852       2.17067957      11.66530991      -1.92157179      -0.72518483       0.63244385       1.16858169
He       3.60157824       2.03537083       8.55013466      -1.40061228      -2.17402037       1.79783720      -1.68296557
X        2.06850696       3.04017735      10.21014023       0.50652935      -1.16886233      -1.65076377      -5.01076795
H        1.86522830       4.74228811      11.44191265      -1.32139252       0.39439051       1.87446734       6.29419975
He       2.01337552       4.83714247       8.44752407      -1.34827064      -1.54149946      -1.04757252       1.31173169
X        0.34500805       5.75113916      10.12797928       0.18871011       2.59066731       0.28219109      -5.82685055
H        0.22010478       7.51917887      11.73936749      -1.80605603       0.02375069      -0.16074025      -1.26995083
He       0.40148851       7.37013912       8.50766087      -1.50613487      -1.98007440       0.90044726      -0.04630943
X        6.72643375       0.51513183      10.01674080       0.07057347      -0.16287329      -1.36075721       0.19025979
H        6.49877834       2.00638866      11.71332169      -1.55848019      -0.84676442       2.17481992      -1.05662687
He       6.45324993       2.23431444       8.43041706      -1.69714685      -0.35711256      -0.56532143      -0.12999412
X        4.88182020       3.03170848       9.99855042       0.34822795       4.01321172       0.64683790       2.66655803
H        4.91532087       4.75376081      11.72234726      -1.87160230      -0.71097319       0.28687894      -1.54235198
He       4.84373760       4.61523724       8.38416767      -1.55880682      -0.32987350       2.00022867       0.99012746
X        3.32471108       5.72573805      10.06711769       0.29776761       2.57914171      -0.18165285      -1.50993406
H        3.12901497       7.46228552      11.66436863      -1.69716918       1.28586682      -0.11030803      -1.03491060
He       3.09800839       7.36752272       8.25553894      -1.60784316       1.34216330       0.50705107       1.76333359
27
Lattice="9.662663459777832 0.0 0.0 -4.85795259475708 8.334839820861816 0.0 0.0 0.0 100.0" Properties=species:S:1:pos:R:3:energies:R:1:forces:R:3 original_dataset_index=7 energy=-26.247631444604423 pbc="F F F"
X        0.81956494       0.69634950      10.05811119       1.01496187      -0.33512771      -6.40866379      -1.81939031
H        0.63767397       2.24827003      11.50368690      -1.64985139       1.15980961       3.37349948       2.59356916
He       0.89686620       2.24877334       8.41759777      -1.82513400      -0.43303058       2.36421764      -0.02247724
X       -0.74714518       3.40418053      10.01025772       0.62538554      -1.16317124      -2.94014568      -1.75897932
H       -0.73758203       5.19822979      11.47351074      -1.96226823      -0.84857436      -0.91033300       2.71598673
He      -0.94248265       5.08044481       8.37311649      -1.90905417       0.65055301       0.47750565       0.77525043
X       -2.45616317       5.95259714      10.03644466       0.38529966      -0.26440840       0.62480915      -1.26967660
H       -2.36292505       7.75696421      11.68980312      -1.85413526      -0.38593865       1.21293065      -1.68311678
He      -2.41761780       7.72286081       8.45812225      -1.73604769      -0.27498630       1.66932585       0.71078254
X        3.99455476       0.58639902       9.99541473       0.70567481       0.43189178      -4.23019984       1.21086836
H        4.12334251       2.14092350      11.56096935      -1.75828752      -1.75223632       1.88935885       1.75605810
He       4.09172058       2.35452533       8.55687618      -1.87137751      -1.28216378       0.89427613      -1.61894048
X        2.35684633       3.44429231       9.99117184       0.81884405       0.63212408      -6.00140393       0.73700662
H        2.42505598       5.02598524      11.50309658      -1.89434953      -0.21568138       1.83453341       2.17099600
He       2.44040513       5.03526115       8.48841381      -1.70245220       0.12747967       2.36612494      -0.76861147
X        0.75138420       5.98787069      10.02082062       0.46908076       1.14825231       1.20995446      -2.13176904
H        0.76638550       7.73245478      11.71222305      -1.93458386      -0.62988499       0.63047428      -1.88479940
He       0.88221180       7.97584677       8.55396271      -1.59497003      -3.11918592      -1.63736709      -2.51762636
X        7.08039618       0.35899210       9.98744488       0.69839907       3.94449611       1.02634383       4.12365988
H        7.14972639       2.34458828      11.54248047      -1.88807782       0.82414953      -0.29483285       0.30912440
He       7.23577929       2.17226338       8.56152439      -1.68594938      -0.32767803       1.43753202      -0.53450495
X        5.51772499       3.19825172      10.11795998       0.77861639       2.12237893       1.79225214      -2.28755001
H        5.51361036       5.21716213      11.57222557      -1.87193604       1.70273290      -1.69093621       2.02413240
He       5.55947256       5.30135298       8.28777790      -1.58163977       0.45294304      -1.01251441       2.15634338
X        4.12703943       6.06636047      10.11962891       0.44218487      -2.97298728      -0.21354853      -5.18632467
H        3.87107658       7.76928520      11.60397434      -1.83183926       0.53054964       1.89866178      -0.11239547
He       3.88599777       7.80287743       8.32140827      -1.63412479       0.27769461       0.63814483       2.31238248
27
Lattice="9.491578102111816 0.0 0.0 -4.892338752746582 8.241594314575195 0.0 0.0 0.0 100.0" Properties=species:S:1:pos:R:3:energies:R:1:forces:R:3 original_dataset_index=8 energy=-28.357467119076656 pbc="F F F"
X        0.89837027       0.46181938       9.96041584       0.44351943      -2.53316332      -0.59189894       1.11903814
H        0.83078545       2.19841361      11.65182972      -1.99848787      -0.14144957       0.20744627      -1.56082802
He       0.77748173       2.25949097       8.33101082      -1.84970054       0.06770286       0.04316014       1.48695153
X       -0.81260723       3.10345268      10.05423069       0.48642414       0.25565124      -0.11116120      -0.25251623
H       -0.81223893       4.94013023      11.65534210      -1.99375401      -1.03049406       0.12997841      -1.56116263
He      -0.85472322       5.00622940       8.54980373      -1.81781499       0.49786280      -1.33903251      -3.14441968
X       -2.50166488       5.77478313       9.85046482       0.82326864       0.80906235       2.51143221       4.83128339
H       -2.61282349       7.79100704      11.60568714      -1.84102753       1.29475035      -1.06354599      -1.37124098
He      -2.50754213       7.69689798       8.48151207      -1.85859043       1.12443978       0.36720451      -1.40580383
X        4.01007891       0.49353549      10.03738689       0.58223691      -1.77214039      -1.86240786       2.18011615
H        3.99013042       2.14205074      11.59043407      -2.04737017      -0.05712275       1.72390574      -0.17862655
He       4.00498390       2.19477367       8.39212227      -1.95640756       0.24323244       0.29849915       0.38082822
X        2.42191100       3.06039500       9.96460724       0.45386910      -0.73091166       0.44442667       2.08050549
H        2.10932660       4.98295593      11.66899014      -1.88212255       1.85196208      -0.82877684      -1.36238286