27
Lattice="9.811129067365956 0.0 0.0 -4.528777932979856 8.422697326268596 0.0 0.0 0.0 100.0" Properties=species:S:1:pos:R:3:atom_types:I:1:MACE_forces:R:3 MACE_energy=-27.080224929941355 pbc="T T T"
Mo       0.83472988       0.29282983      10.07725889        0      -0.41345306       2.79262300       2.06383676
S        0.87171097       2.34922678      11.64810110        1       0.10220521      -0.90212816      -0.77001654
S        0.86545637       2.26451945       8.18193614        2       0.07322268       0.13388333       3.20001795
Mo      -0.77480645       3.16883379      10.12756251        0       1.81801762       1.92104185      -2.96002172
S       -0.62070402       5.19333476      11.81220107        1      -0.15784867      -0.78305443      -1.80859997
S       -0.51218607       5.05976212       8.40774026        2      -0.10828321       0.03271406       2.30985448
Mo      -2.18696150       6.01182918      10.01462170        0      -0.01433834      -0.97122111       1.15302472
S       -1.92230433       7.88123779      11.57541339        1      -1.56097369      -0.50218188       1.11616107
S       -2.15987788       7.89304941       8.62920590        2       0.37367288      -0.57331367      -3.17226160
Mo       4.02889600       0.32255853      10.04670311        0       1.40672159       1.66229240      -0.99844695
S        4.12432297       2.25078485      11.55626207        1      -0.68865364      -0.19865148       0.22281157
S        4.18692386       2.16217760       8.42734290        2      -0.44477384       0.43689566       1.57120138
Mo       2.42883723       3.27767158      10.02679829        0       1.27333853      -1.70103187      -0.65984774
S        2.79050684       5.17031883      11.55550170        1      -0.13765318      -0.37673531       0.69333623
S        2.85467457       4.96361012       8.50356850        2      -0.90390238       1.64248800       0.20155975
Mo       1.02212048       6.04715121      10.20094681        0       0.56148435      -0.35720522      -2.56773520
S        1.05539885       8.00459999      11.58764983        1       1.45199124      -0.09854616       0.06187972
S        1.29158020       7.83793049       8.53726875        2      -1.64150026      -0.92058551      -1.70660965
Mo       7.37255135       0.37677875       9.85935665        0       0.06215493       2.11499974       5.17821579
S        7.59042513       2.22612066      11.57322649        1      -1.76265156      -1.13533658       0.28039330
S        7.52220050       2.40506290       8.32233438        2      -0.88799804      -0.49826046       2.03212490
Mo       5.79919160       3.11027214      10.10192701        0       0.89305145       1.61845723      -1.96817339
S        6.10283035       5.16892565      11.81806420        1      -0.53153164      -0.46395558      -2.60695714
S        5.77532603       5.12753250       8.38165737        2       1.64380470      -0.73837866       1.58293483
Mo       4.49017506       6.13691617      10.04595844        0      -1.10481253      -0.58004330       0.33045088
S        4.36249107       7.85818458      11.65229536        1       0.19489369       0.66080664      -1.27569322
S        4.50332786       8.12986554       8.47154498        2       0.50381520      -2.21557255      -1.50344020
27
Lattice="9.261324002253584 0.0 0.0 -4.267256908602364 7.427683724371399 0.0 0.0 0.0 100.0" Properties=species:S:1:pos:R:3:atom_types:I:1:MACE_forces:R:3 MACE_energy=-21.57449487107058 pbc="T T T"
Mo       0.60360031       0.37843622       9.81891220        0       5.38679342      -0.74423732       5.64231965
S        0.91911787       2.02201376      11.54952488        1       0.64762113       0.13521146      -1.39010131
S        1.03128733       1.97053098       8.50017746        2      -2.83175807       0.65175342      -7.86970438
Mo      -0.51454157       2.93493210       9.88790629        0      -1.12912563      -2.18535836       3.27603456
S       -0.52815942       4.56262461      11.50951967        1       1.02403656      -0.11746249       1.34057584
S       -0.38908304       4.44274325       8.21565662        2       0.10633653       1.41010003       1.01769136
Mo      -1.94773886       5.20902613       9.90304763        0      -1.01695158       2.45479275      -2.04537682
S       -1.78727161       7.04925028      11.81041823        1      -0.08283673       0.07856764      -2.94264686
S       -1.95886542       6.96653184       8.38280685        2       1.00144668       0.77734051       0.45189828
Mo       4.09290600       0.58632424       9.93478340        0      -2.81965145      -6.25906006      -0.80252453
S        4.10207286       2.17888762      11.41976817        1      -1.37895394       1.01254015       1.11244331
S        4.12575407       2.00502849       8.18958136        2      -1.14574264       0.52991479      -0.75572595
Mo       2.47131578       2.79216972       9.73142788        0       2.44066141       0.56243781       6.15407141
S        2.59809404       4.47816967      11.43465205        1       1.72093129       0.02252336      -0.16967801
S        2.48775740       4.50360497       8.22261187        2       0.94992195       0.73829213       0.53938357
Mo       1.10853695       5.39278932      10.06683599        0      -1.25282875      -5.25788249      -4.23585576
S        1.17037945       6.91255870      11.45561228        1       0.93532427       3.95012402       2.85129648
S        1.13867979       6.71359675       8.36565210        2       0.60881985       4.44966607      -0.29219000
Mo       7.04564300       0.53554254       9.97141935        0      -0.32951651      -7.65139949      -3.32051243
S        7.07759919       1.85945807      11.53759074        1       0.54164339       4.44426457       1.01995538
S        7.05558966       2.15078320       8.46797583        2       2.01468288      -0.04587948      -3.99214394
Mo       5.54956131       2.72385912       9.82791050        0       0.88643245       3.59666454       1.96128906
S        5.77418176       4.48675121      11.30256241        1      -0.64559364      -0.55390870       1.83125611
S        5.54778962       4.52775295       8.27774083        2       3.71196910      -2.02256664      -2.05171620
Mo       4.33773466       5.34816826       9.70010608        0      -5.51452439      -0.18700111       4.74107170
S        4.25942646       6.99261080      11.46685738        1      -0.72249627      -0.97309754      -0.33115307
S        4.42070130       6.99663114       8.24166520        2      -3.10664130       1.18366041      -1.73995743
27
Lattice="8.913963086677777 0.0 0.0 -4.676675077573148 8.108978736172254 0.0 0.0 0.0 100.0" Properties=species:S:1:pos:R:3:atom_types:I:1:MACE_forces:R:3 MACE_energy=-25.620860849685027 pbc="T T T"
Mo       0.77384342       0.45631468      10.05185989        0       1.53369532      -0.58511221      -0.89978719
S        0.79559527       2.34602227      11.55108508        1      -3.07599116      -2.75085142       2.89540426
S        0.89530419       2.10836175       8.55839223        2      -4.38841250      -0.88798150      -4.04799197
Mo      -0.74814446       3.14199549      10.08836970        0      -0.93952451       1.01785578      -3.62003749
S       -0.90358615       5.06544777      11.61182393        1      -0.74624366      -1.74415888       0.06422348
S       -0.93922774       5.04845330       8.35510217        2       0.68517288      -1.67609742       1.04439817
Mo      -2.43624316       5.68495751       9.93769163        0       1.28493351       3.22565042      -0.41254614
S       -2.44883770       7.56626636      11.52970940        1      -0.33523838      -0.66609008       1.89202545
S       -2.32393257       7.60288581       8.54413969        2       0.04637230       0.43614877      -0.19104634
Mo       3.82342786       0.44048259      10.24693573        0      -3.93142759       1.94603253      -9.11193472
S        3.47948259       2.26577253      11.61064462        1       1.39964145       0.55178597       0.57416614
S        3.80905766       2.14922335       8.35842262        2      -2.07815477      -0.41336249       1.30157204
Mo       1.98769789       3.01720090       9.97900785        0       7.62069044       4.37204472       2.22990007
S        1.98765599       4.77270431      11.75634869        1       0.54157071       1.08060721      -2.33649176
S        1.88532548       4.96774717       8.63409406        2       0.73300128      -0.87962414      -3.69910348
Mo       0.48507380       5.89708844      10.07117199        0       0.88523386       1.53703742      -0.14470218
S        0.34413246       7.72039413      11.57887258        1       4.58234261      -2.10479826       4.76893155
S        0.56971812       7.69740769       8.24365089        2      -0.05512826      -0.82531935       2.44390753
Mo       6.69056308       0.38858728      10.02807031        0      -0.68109647      -0.03035198      -2.03293197
S        6.67024370       2.20652142      11.49012605        1      -1.04919736       0.23319570       1.80313277
S        6.50618132       2.12583401       8.47489157        2       1.70146155       1.08984748      -0.39448053
Mo       5.01607422       3.24278835       9.93038932        0       1.00173188      -1.63553844       1.13472365
S        5.14188144       4.92713783      11.45623784        1      -1.95359836      -0.35684283       1.41392119
S        4.98768058       4.98143813       8.26005169        2      -0.42358224      -0.64652812       0.72630040
Mo       3.54682847       5.83047350       9.93722543        0      -0.23362876      -0.69790351       1.06568653
S        3.56827725       7.52770009      11.39132012        1      -0.85914148       0.54663015       4.55196430
S        3.63988668       7.68411251       8.46053296        2      -1.26548229      -0.13627551      -1.01920374
27
Lattice="9.351681539757159 0.0 0.0 -5.103549276780913 8.335490416920987 0.0 0.0 0.0 100.0" Properties=species:S:1:pos:R:3:atom_types:I:1:MACE_forces:R:3 MACE_energy=-28.32808790593933 pbc="T T T"
Mo       0.67860571       0.50587828      10.02767719        0      -2.11559439      -3.22893564       0.42400416
S        0.48191553       2.14093844      11.52878947        1      -0.13311848       1.90281873       0.49566101
S        0.45482932       2.06853211       8.40332939        2       0.31389713       1.83194227      -1.28255951
Mo      -0.97568244       3.24671399       9.87284982        0      -0.90394726      -0.53678212       3.40399771
S       -1.21068927       5.06972986      11.67529759        1      -0.67582144      -0.71851809      -1.45574335
S       -1.19102642       5.13815891       8.48909646        2      -0.10274184      -0.83527360      -3.26225835
Mo      -2.71062791       6.05135716       9.92020954        0      -1.06158163       0.92325332       3.61723252
S       -2.86302385       7.91716726      11.67059744        1       0.40397360      -0.53873195      -1.86436044
S       -3.14044148       7.94637911       8.38085729        2       2.61801808      -0.70119860       0.26996205
Mo       3.89108319       0.38910944      10.00223688        0      -3.64802765       1.90581120       2.50303894
S        3.76146140       2.41960171      11.56919341        1      -0.95288431      -0.96006459      -0.89857161
S        3.53607746       2.31529212       8.48666315        2       1.48936500      -0.27040664      -0.70146408
Mo       1.92767427       3.11113612       9.93457466        0       1.52493289       2.25379540       1.58113394
S        2.01595602       5.09241049      11.59316925        1      -0.84505372      -1.26184453      -0.89860933
S        1.89274200       5.27216758       8.38491873        2       0.00199175      -1.84396257       0.43911238
Mo       0.27169347       5.78582645      10.02324356        0       2.42322881       4.14984496       1.84306195
S        0.27069377       7.85884269      11.68685347        1       0.72986071      -0.70332247      -2.17517669
S        0.11628816       7.86493905       8.49842944        2       1.69677203      -1.49106913      -1.43242924
Mo       6.93338906       0.46458499       9.87283298        0      -1.38519403       0.57545638       2.74024998
S        6.93543054       2.33217004      11.59029922        1      -0.91961182      -0.16483813      -1.83094436
S        6.79729030       2.37511763       8.40148897        2      -0.72841362      -0.12815627      -0.46116555
Mo       5.21956530       3.36631545      10.00203956        0       0.34724803      -3.07740728      -1.80706718
S        5.09961222       4.97066843      11.44069944        1       0.52685796       2.30375206       2.48788679
S        5.08269129       5.14315178       8.45591950        2      -0.10577058      -0.33934043      -1.19051972
Mo       3.51464808       5.95339082      10.00440740        0      -0.64093671       1.65027480      -0.81297080
S        3.22616648       7.87172370      11.57604446        1       1.26263942      -0.37571058      -1.07452037
S        3.31161653       7.82839268       8.31314551        2       0.87991208      -0.32138651       1.34301918
27
Lattice="10.797208990133319 0.0 0.0 -4.724135241080002 7.946281536751546 0.0 0.0 0.0 100.0" Properties=species:S:1:pos:R:3:atom_types:I:1:MACE_forces:R:3 MACE_energy=-23.717486610399188 pbc="T T T"
Mo       0.89635946       0.49482745      10.00132728        0       0.61047305      -1.28881356       0.28173172
S        1.01863353       2.21678577      11.75346920        1      -0.36584274       0.44960942      -1.95419434
S        1.05528250       2.17410873       8.37143352        2       0.10787324       0.90606645       0.61674197
Mo      -0.71697247       2.96667893       9.97777101        0      -0.17966192      -0.58886349       2.68469226
S       -0.60586919       4.88332281      11.58542036        1      -0.13974658       0.13881459      -1.73281439
S       -0.53394250       4.66651270       8.48186197        2      -0.14943310       2.07651076       0.45103125
Mo      -2.44063999       5.89234251       9.90943331        0       1.48403564      -3.41554371       1.20822418
S       -2.11487740       7.55680030      11.50913808        1      -0.05221840       0.51694160       0.35095509
S       -1.92251324       7.57371088       8.41393133        2      -0.87541353       0.93516475      -0.40591204
Mo       4.45161908       0.37257065      10.01326144        0       1.28692092       0.68564955       0.13927427
S        4.72418599       2.34870715      11.60035398        1      -0.96339756      -0.68575732      -1.27425820
S        4.55180531       2.32586026       8.38360629        2       1.09632215      -1.45454527       0.37829788
Mo       2.98406892       3.16847877       9.84058815        0      -0.85234933      -2.46670830       3.31075023
S        3.21960139       4.80168835      11.69343780        1      -0.05989206       0.85655885      -2.30990103
S        3.15023472       4.70387752       8.25871821        2      -0.35725593       2.74954554       0.39316125
Mo       1.36554570       5.65560074      10.09983886        0       0.10649243      -0.91664591      -1.74937136
S        1.53905360       7.37906636      11.68450851        1      -0.32598120       1.28237724      -1.54268562
S        1.75011745       7.54186668       8.24862606        2      -0.62408293      -0.24957786       2.23440129
Mo       8.11897102       0.54141957       9.89197639        0       0.12017878      -4.06964322       3.26836640
S        8.11973114       2.18748323      11.69419361        1       0.11780298       0.70972229      -2.12741333
S        8.16635781       2.19737563       8.52999809        2       0.17236686       2.37171635      -1.90059536
Mo       6.33095969       3.08814429       9.99717467        0       1.61093251      -0.12580644      -0.16140610
S        6.66630372       4.88119576      11.57766581        1      -0.15236416       0.65663752      -1.59815073
S        6.84745714       4.88303345       8.24653140        2      -0.97559960      -0.04967275       1.35170235
Mo       4.94033747       5.64073299       9.84764845        0       0.42489946      -1.19901761       2.16202081
S        5.19438392       7.47565171      11.47969085        1      -0.51426883       0.32580356      -0.83337693
S        5.25336800       7.42311681       8.47724725        2      -0.55079016       1.84947696      -1.24127152
27
Lattice="9.458852624701752 0.0 0.0 -4.708427659524038 8.432708997710982 0.0 0.0 0.0 100.0" Properties=species:S:1:pos:R:3:atom_types:I:1:MACE_forces:R:3 MACE_energy=-28.788035333720106 pbc="T T T"
Mo       0.74791242       0.33533146       9.98592165        0      -0.38210149       0.51474709       1.33049507
S        0.96857043       2.14405042      11.57516307        1      -0.95382728       1.12032468      -0.22342273
S        0.62332231       2.30962291       8.63421850        2       1.18850198       0.04333017      -3.20295602
Mo      -0.76474067       3.35159876      10.07071932        0      -1.64663997      -1.30610527       1.38990461
S       -0.74338069       5.26246576      11.58263745        1       0.49563345      -0.94464685      -0.24871113
S       -0.94357163       5.14242536       8.39745396        2       2.03124331      -1.73622919      -1.33909125
Mo      -2.27457597       5.92007452       9.94678092        0      -3.32520947       2.83191441       2.51248371
S       -2.29434686       8.07487398      11.49853407        1      -1.57853904      -2.77182463       2.09213690
S       -2.46772857       7.80063631       8.45688583        2       0.92571969       0.31261246      -0.23733345
Mo       3.83385931       0.35000309      10.06576572        0       2.21536365       1.87776898      -2.90299174
S        3.89961158       2.37261319      11.52928196        1       0.30658140      -0.15721481      -0.31048746
S        3.81288998       2.19514147       8.43514654        2       0.88739550       0.34211612       0.32004167
Mo       2.38088874       3.31683369       9.93483722        0      -0.17408673      -1.36250906       1.29182864
S        2.38247877       5.14624011      11.40544666        1      -0.85338761      -0.47048912       1.92950073
S        2.40849913       5.10627646       8.42321893        2      -0.05243846      -0.39362014      -2.28365270
Mo       0.76684432       5.88362862       9.85292545        0       0.03137980       2.66349951       1.49505780
S        0.86438400       8.09737375      11.69363236        1      -0.42900240      -0.48181865      -1.63031461
S        0.65789536       7.89504795       8.37001856        2       0.78881981      -0.02357194       1.49122975
Mo       7.13745345       0.52237554       9.95221124        0      -1.51494299      -1.86375453      -0.28002619
S        7.10448462       2.20130296      11.63295666        1       0.03638565       1.53627009      -1.16165572
S        6.91497745       2.24622022       8.43909467        2       1.47845739       1.24843873      -0.09972752
Mo       5.53835969       3.33085644       9.99668677        0      -1.05775172      -2.52465933       1.14349967
S        5.44293689       5.15291617      11.54131740        1       0.72867072       0.19798995      -0.05538880
S        5.60340254       4.97765498       8.42017602        2      -0.91412610       1.30442862      -0.06992102
Mo       3.89215611       6.04769714       9.97453508        0       1.53770220       1.08419210      -1.89243163
S        3.74520716       7.92267158      11.55897330        1       1.51739204      -0.51437755      -0.42371461
S        4.07950949       7.95947882       8.30636805        2      -1.28719332      -0.52681184       1.36564805
27
Lattice="8.863291723091884 0.0 0.0 -4.973175259243409 7.855757036469414 0.0 0.0 0.0 100.0" Properties=species:S:1:pos:R:3:atom_types:I:1:MACE_forces:R:3 MACE_energy=-25.958984640060763 pbc="T T T"
Mo       0.93555678       0.33658173       9.88046435        0      -5.90233546       1.17991208       4.46940015
S        0.43506088       2.05114208      11.74446069        1       0.82322436       0.07630097      -1.54761519
S        0.58891876       2.24857988       8.64468838        2       1.18503914      -0.28347672      -3.67926987
Mo      -0.98770041       3.04275919      10.00354623        0       0.60886908       0.83287989       2.96419024
S       -0.84295222       4.87877677      11.52858902        1      -3.93554482      -1.92959111       2.76224912
S       -1.00688058       4.69434851       8.35238411        2      -0.40363499       1.03525888       1.58776119
Mo      -2.56630408       5.70289273      10.04293735        0       0.91738484      -1.57005827      -0.40146576
S       -2.71569663       7.46188210      11.61322902        1       0.51469514      -0.66146652      -0.07005761
S       -2.67552642       7.37120354       8.46500641        2       2.09173959      -0.26221110      -2.07173142
Mo       3.69400727       0.55735569      10.07810867        0       1.64310861      -4.62371579       0.69991443
S        3.60740848       2.17067953      11.66530972        1      -0.67321439       0.81391515       1.23070587
S        3.60157821       2.03537074       8.55013479        2      -2.18027242       1.84007281      -1.73448006
Mo       2.06850705       3.04017731      10.21014069        0      -0.94596926      -1.58916258      -4.97373414
S        1.86522834       4.74228828      11.44191223        1       0.52364110       1.78856081       6.35455198
S        2.01337560       4.83714234       8.44752446        2      -1.55834104      -1.06024946       1.12668502
Mo       0.34500806       5.75113917      10.12797887        0       2.47820200       0.38581284      -5.85323090
S        0.22010478       7.51917885      11.73936784        1       0.18480716      -0.16152170      -1.31627875
S        0.40148850       7.37013906       8.50766101        2      -1.97000470       0.85663696      -0.09044782
Mo       6.72643363       0.51513186      10.01674101        0      -0.21441476      -1.37823880       0.22166674
S        6.49877821       2.00638867      11.71332129        1      -0.83807463       2.24154746      -1.10247945
S        6.45325014       2.23431442       8.43041742        2      -0.36048748      -0.42253409      -0.07044746
Mo       4.88182043       3.03170843       9.99854999        0       3.74577082       0.44656888       2.62404108
S        4.91532101       4.75376093      11.72234767        1      -0.61270697       0.37102313      -1.54853540
S        4.84373752       4.61523743       8.38416788        2      -0.27250328       1.97936321       0.95508942
Mo       3.32471113       5.72573786      10.06711730        0       2.34423795      -0.39352773      -1.35710432
S        3.12901497       7.46228538      11.66436844        1       1.36457708      -0.09748632      -0.94088335
S        3.09800851       7.36752261       8.25553935        2       1.44220732       0.58538714       1.76150626
27
Lattice="9.662663638967494 0.0 0.0 -4.857952457809102 8.334839727027859 0.0 0.0 0.0 100.0" Properties=species:S:1:pos:R:3:atom_types:I:1:MACE_forces:R:3 MACE_energy=-26.28594231065844 pbc="T T T"
Mo       0.81956491       0.69634952      10.05811105        0      -0.24663675      -6.63463239      -1.79351952
S        0.63767396       2.24826992      11.50368708        1       1.20511923       3.43167899       2.59983990
S        0.89686621       2.24877335       8.41759754        2      -0.48386152       2.44055806       0.03895709
Mo      -0.74714517       3.40418056      10.01025767        0      -1.12429455      -2.88148281      -1.73922314
S       -0.73758204       5.19822992      11.47351058        1      -0.80096446      -0.99444280       2.77966171
S       -0.94248268       5.08044495       8.37311644        2       0.67527506       0.53084458       0.69164527
Mo      -2.45616310       5.95259697      10.03644446        0      -0.21783191       0.74749521      -1.43816580
S       -2.36292516       7.75696413      11.68980351        1      -0.36154456       1.19876912      -1.73292252
S       -2.41761777       7.72286072       8.45812179        2      -0.30990684       1.67140043       0.70859579
Mo       3.99455481       0.58639903       9.99541485        0       0.40933577      -4.09632636       1.22401154
S        4.12334266       2.14092353      11.56096928        1      -1.81917199       1.90834121       1.74318747
S        4.09172062       2.35452541       8.55687614        2      -1.19016343       0.79795354      -1.47706907
Mo       2.35684638       3.44429221       9.99117198        0       0.71559651      -5.93750389       0.70512537
S        2.42505609       5.02598521      11.50309669        1      -0.32722720       1.83572096       1.98885967
S        2.44040523       5.03526137       8.48841424        2       0.09206612       2.40791401      -0.58085173
Mo       0.75138418       5.98787052      10.02082090        0       1.17004385       1.25108594      -2.04329902
S        0.76638547       7.73245478      11.71222282        1      -0.71049398       0.49473313      -1.91038639
S        0.88221182       7.97584665       8.55396285        2      -3.09048238      -1.66626958      -2.49416822
Mo       7.08039602       0.35899211       9.98744509        0       3.98270677       1.06435634       4.09858283
S        7.14972659       2.34458832      11.54248074        1       0.83963442      -0.37727570       0.29383264
S        7.23577938       2.17226341       8.56152485        2      -0.50605631       1.50312954      -0.52966063
Mo       5.51772493       3.19825180      10.11795965        0       2.04734965       1.83268026      -2.48636431
S        5.51361057       5.21716198      11.57222532        1       1.76018605      -1.75726727       2.05616926
S        5.55947247       5.30135277       8.28777772        2       0.54341134      -1.16429248       2.20885845
Mo       4.12703959       6.06636034      10.11962936        0      -3.10088063      -0.13264243      -5.17015277
S        3.87107660       7.76928499      11.60397393        1       0.58368920       1.87338763      -0.20206057
S        3.88599768       7.80287724       8.32140862        2       0.26510254       0.65208675       2.46051671
27
Lattice="9.491578001620752 0.0 0.0 -4.892338965155401 8.24159412827531 0.0 0.0 0.0 100.0" Properties=species:S:1:pos:R:3:atom_types:I:1:MACE_forces:R:3 MACE_energy=-28.422911498050066 pbc="T T T"
Mo       0.89837026       0.46181937       9.96041545        0      -2.45154720      -0.57850078       1.18970457
S        0.83078548       2.19841367      11.65182983        1      -0.08348417       0.21502330      -1.60025718
S        0.77748173       2.25949102       8.33101049        2       0.09962469       0.04562041       1.53809167
Mo      -0.81260721       3.10345272      10.05423115        0       0.28627307      -0.05440404      -0.19691035
S       -0.81223894       4.94013001      11.65534172        1      -1.01352995       0.11707910      -1.45484571
S       -0.85472324       5.00622936       8.54980370        2       0.43759674      -1.30756290      -3.34585586
Mo      -2.50166484       5.77478331       9.85046501        0       0.77875611       2.54269248       4.84375050
S       -2.61282356       7.79100709      11.60568748        1       1.18833011      -0.99813773      -1.38598516
S       -2.50754203       7.69689809       8.48151180        2       1.20918896       0.37463589      -1.40111595
Mo       4.01007876       0.49353548      10.03738645        0      -1.88382857      -1.88372322       2.13257391
S        3.99013031       2.14205078      11.59043451        1      -0.09091985       1.80331509      -0.25253924
S        4.00498368       2.19477365       8.39212201        2       0.19536690       0.35445015       0.50832280
Mo       2.42191091       3.06039512       9.96460693        0      -0.72234243       0.32682508       1.98450831
S        2.10932667       4.98295601      11.66898966        1       1.83346429      -0.82257079      -1.22446946
S        2.32068038       4.81266191       8.48139410        2      -0.12971538       1.21892316      -1.04526219
Mo       0.72865610       5.81294990      10.01083661        0      -0.50719292       0.34758033       4.11365479
S        0.67844281       7.83910946      11.63289413        1       0.34373006      -0.84466122      -0.97784685
S        0.68962104       7.75335590       8.79228884        2      -0.15995029      -0.66549997      -6.97649261
Mo       7.32609441       0.40248847       9.87196818        0      -2.07863096       0.58899335       4.52232247
S        7.01386611       1.97191899      11.46152274        1       0.90914765       1.84146157       1.67048203
S        7.10279745       2.19391751       8.46124253        2       0.55511114       0.92890146      -1.59528480
Mo       5.57878223       3.10730155       9.99454811        0      -1.53206355      -0.16430975      -1.03039272
S        5.59554530       5.00272697      11.42614384        1      -1.34562459      -0.53998937       1.75614616
S        5.29659192       5.00691655       8.41150002        2       0.51534118      -1.01699491      -1.02646388
Mo       3.79771704       5.89512988       9.99676819        0       0.07170888       0.08976879       0.85316017
S        3.67298631       7.74212831      11.56802300        1       2.21462629      -0.51141840      -0.72995776
S        3.84043009       7.79334107       8.39089950        2       1.36056381      -1.40749709      -0.86903765
27
Lattice="9.50045283258205 0.0 0.0 -5.171381490359387 8.653363956670537 0.0 0.0 0.0 100.0" Properties=species:S:1:pos:R:3:atom_types:I:1:MACE_forces:R:3 MACE_energy=-28.063593371198195 pbc="T T T"
Mo       0.77741255       0.45601129       9.81550970        0      -0.97875665       0.13475179       2.84506228
S        0.76343359       2.31357878      11.55471865        1      -0.31073055       0.42261160      -2.36838788