12
Lattice="3.145899764991676 0.0 0.0 0.0 5.448899730550542 0.0 0.0 0.0 28.386891255712495" Properties=species:S:1:pos:R:3:atom_types:I:1:energies:R:1:forces:R:3 energy=5.220011284933842 free_energy=5.220011284933842 stress="0.0014066085195997356 7.17997906055858e-14 1.718200661793418e-17 7.17997906055858e-14 0.0014066283456213948 2.957540410545747e-17 1.718200661793418e-17 2.957540410545747e-17 -0.06737423701194666" pbc="T T F"
Mo       0.78648218       0.45407131      11.57172229        0       0.00123439      -0.00000020       0.00000016      -0.05229625
S        0.78648218       2.27037415      13.14344527        1       1.30376843      -0.00000062       0.00000034      -7.67520051
S        0.78648218       2.27037415       9.99999931        2       0.00000000       0.00000000       0.00000000       0.00000000
Mo       2.35941759       3.17852558      11.57172229        0       0.00123435       0.00000020       0.00000008      -0.05229601
S        2.35941759       4.99482842      13.14344527        1       1.30376847       0.00000062      -0.00000057      -7.67520074
S        2.35941759       4.99482842       9.99999931        2       0.00000000       0.00000000       0.00000000       0.00000000
W        0.78648218       0.45407131      16.81516802        3       0.00123439      -0.00000020       0.00000016       0.05229625
Se       0.78648218       2.27037415      18.38689101        4       0.00000000       0.00000000       0.00000000       0.00000000
Se       0.78648218       2.27037415      15.24344504        5       1.30376843      -0.00000062       0.00000034       7.67520051
W        2.35941759       3.17852558      16.81516802        3       0.00123435       0.00000020       0.00000008       0.05229601
Se       2.35941759       4.99482842      18.38689101        4       0.00000000       0.00000000       0.00000000       0.00000000
Se       2.35941759       4.99482842      15.24344504        5       1.30376847       0.00000062      -0.00000057       7.67520074
12
Lattice="3.145899764991676 0.0 0.0 0.0 5.448899730550542 0.0 0.0 0.0 28.386891255712495" Properties=species:S:1:pos:R:3:atom_types:I:1:energies:R:1:forces:R:3 energy=2.021159798299624 free_energy=2.021159798299624 stress="0.0006343779717264675 1.9624101427744317e-13 -2.2514276171265562e-13 1.9624101427744317e-13 -0.008057232285957004 -0.0110880022287891 -2.2514276171265562e-13 -0.0110880022287891 -0.030054904077070732" pbc="T T F"
Mo       0.78648218      -0.00000378      11.57172229        0      -0.00659367      -0.00000045      -0.03326400      -0.03797688
S        0.78648218       1.81629907      13.14344527        1       0.51188399      -0.00000287      -2.08545404      -3.38955506
S        0.78648218       1.81629907       9.99999931        2       0.00000000       0.00000000       0.00000000       0.00000000
Mo       2.35941759       2.72445049      11.57172229        0      -0.00659377       0.00000045      -0.03326424      -0.03797679
S        2.35941759       4.54075334      13.14344527        1       0.51188334       0.00000287      -2.08545655      -3.38955163
S        2.35941759       4.54075334       9.99999931        2       0.00000000       0.00000000       0.00000000       0.00000000
W        0.78648218       0.90814608      16.81516802        3      -0.00756927      -0.00000048       0.04270776       0.03489640
Se       0.78648218       2.72444892      18.38689101        4       0.00000000       0.00000000       0.00000000       0.00000000
Se       0.78648218       2.72444892      15.24344504        5       0.51285884      -0.00000284       2.07601304       3.39263201
W        2.35941759       3.63260034      16.81516802        3      -0.00756920       0.00000048       0.04270734       0.03489633
Se       2.35941759       5.44890319      18.38689101        4       0.00000000       0.00000000       0.00000000       0.00000000
Se       2.35941759       5.44890319      15.24344504        5       0.51285952       0.00000284       2.07601069       3.39263561
12
Lattice="3.145899764991676 0.0 0.0 0.0 5.448899730550542 0.0 0.0 0.0 28.386891255712495" Properties=species:S:1:pos:R:3:atom_types:I:1:energies:R:1:forces:R:3 energy=0.2845604222794099 free_energy=0.2845604222794099 stress="-0.0037211507661170356 2.107764414403426e-13 -8.644862408861334e-13 2.107764414403426e-13 -0.0037211292234481546 8.587561441781361e-08 -8.644862408861334e-13 8.587561441781361e-08 -0.010806639107175104" pbc="T T F"
Mo       0.78648218      -0.45407886      11.57172229        0      -0.01694917      -0.00000126       0.00000079      -0.01588768
S        0.78648218       1.36222399      13.14344527        1       0.08809032      -0.00002041       0.00001385      -1.22221029
S        0.78648218       1.36222399       9.99999931        2       0.00000000       0.00000000       0.00000000       0.00000000
Mo       2.35941759       2.27037573      11.57172229        0      -0.01694934       0.00000126       0.00000088      -0.01588762
S        2.35941759       4.08667857      13.14344527        1       0.08808840       0.00002041       0.00001213      -1.22220060
S        2.35941759       4.08667857       9.99999931        2       0.00000000       0.00000000       0.00000000       0.00000000
W        0.78648218       1.36222116      16.81516802        3      -0.02047192      -0.00000117      -0.00000095       0.00272668
Se       0.78648218       3.17852400      18.38689101        4       0.00000000       0.00000000       0.00000000       0.00000000
Se       0.78648218       3.17852400      15.24344504        5       0.09161090      -0.00002051      -0.00001240       1.23536120
W        2.35941759       4.08667543      16.81516802        3      -0.02047170       0.00000117      -0.00000092       0.00272699
Se       2.35941759       5.90297827      18.38689101        4       0.00000000       0.00000000       0.00000000       0.00000000
Se       2.35941759       5.90297827      15.24344504        5       0.09161293       0.00002051      -0.00001338       1.23537131
12
Lattice="3.145899764991676 0.0 0.0 0.0 5.448899730550542 0.0 0.0 0.0 28.386891255712495" Properties=species:S:1:pos:R:3:atom_types:I:1:energies:R:1:forces:R:3 energy=0.578494735669818 free_energy=0.578494735669818 stress="-0.008822395959848092 -8.738595813362339e-13 -1.2792856993806649e-18 -8.738595813362339e-13 0.0008320224291980709 -2.172312691623154e-11 -1.2792856993806649e-18 -2.172312691623154e-11 -0.014011005129555347" pbc="T T F"
Mo       0.78648218      -0.90815363      11.57172229        0      -0.01423915      -0.00000130      -0.00944389      -0.02139830
S        0.78648218       0.90814922      13.14344527        1       0.15886283      -0.00004727       0.00943938      -1.56984409
S        0.78648218       0.90814922       9.99999931        2       0.00000000       0.00000000       0.00000000       0.00000000
Mo       2.35941759       1.81630064      11.57172229        0      -0.01423912       0.00000130      -0.00944328      -0.02139847
S        2.35941759       3.63260349      13.14344527        1       0.15886280       0.00004727       0.00944779      -1.56984392
S        2.35941759       3.63260349       9.99999931        2       0.00000000       0.00000000       0.00000000       0.00000000
W        0.78648218       1.81629624      16.81516802        3      -0.01423915      -0.00000130      -0.00944389       0.02139830
Se       0.78648218       3.63259909      18.38689101        4       0.00000000       0.00000000       0.00000000       0.00000000
Se       0.78648218       3.63259909      15.24344504        5       0.15886283      -0.00004727       0.00943939       1.56984409
W        2.35941759       4.54075051      16.81516802        3      -0.01423912       0.00000130      -0.00944328       0.02139847
Se       2.35941759       6.35705336      18.38689101        4       0.00000000       0.00000000       0.00000000       0.00000000
Se       2.35941759       6.35705336      15.24344504        5       0.15886280       0.00004727       0.00944780       1.56984392
12
Lattice="3.145899764991676 0.0 0.0 0.0 5.448899730550542 0.0 0.0 0.0 28.386891255712495" Properties=species:S:1:pos:R:3:atom_types:I:1:energies:R:1:forces:R:3 energy=0.28456042228377193 free_energy=0.28456042228377193 stress="-0.0037211519981574454 2.036260258276966e-13 8.350862687710382e-13 2.036260258276966e-13 -0.0037211279914241414 -8.706630487475523e-08 8.350862687710382e-13 -8.706630487475523e-08 -0.010806639107220444" pbc="T T F"
Mo       0.78648218      -1.36222871      11.57172229        0      -0.02047191      -0.00000117      -0.00000095      -0.00272669
S        0.78648218       0.45407414      13.14344527        1       0.09161097      -0.00002051      -0.00001246      -1.23536154
S        0.78648218       0.45407414       9.99999931        2       0.00000000       0.00000000       0.00000000       0.00000000
Mo       2.35941759       1.36222556      11.57172229        0      -0.02047171       0.00000117      -0.00000094      -0.00272698
S        2.35941759       3.17852841      13.14344527        1       0.09161286       0.00002051      -0.00001372      -1.23537098
S        2.35941759       3.17852841       9.99999931        2       0.00000000       0.00000000       0.00000000       0.00000000
W        0.78648218       2.27037101      16.81516802        3      -0.01694917      -0.00000126       0.00000079       0.01588768
Se       0.78648218       4.08667385      18.38689101        4       0.00000000       0.00000000       0.00000000       0.00000000
Se       0.78648218       4.08667385      15.24344504        5       0.08809032      -0.00002041       0.00001386       1.22221029
W        2.35941759       4.99482528      16.81516802        3      -0.01694934       0.00000126       0.00000090       0.01588762
Se       2.35941759       6.81112812      18.38689101        4       0.00000000       0.00000000       0.00000000       0.00000000
Se       2.35941759       6.81112812      15.24344504        5       0.08808840       0.00002041       0.00001251       1.22220060
12
Lattice="3.145899764991676 0.0 0.0 0.0 5.448899730550542 0.0 0.0 0.0 28.386891255712495" Properties=species:S:1:pos:R:3:atom_types:I:1:energies:R:1:forces:R:3 energy=2.0211584827879907 free_energy=2.0211584827879907 stress="0.000634377293642352 1.962597507013483e-13 2.2513086595613232e-13 1.962597507013483e-13 -0.008057233583392876 0.011087998968583831 2.2513086595613232e-13 0.011087998968583831 -0.030054889159627483" pbc="T T F"
Mo       0.78648218      -1.81630348      11.57172229        0      -0.00756927      -0.00000048       0.04270777      -0.03489639
S        0.78648218      -0.00000063      13.14344527        1       0.51285852      -0.00000284       2.07601236      -3.39263032
S        0.78648218      -0.00000063       9.99999931        2       0.00000000       0.00000000       0.00000000       0.00000000
Mo       2.35941759       0.90815079      11.57172229        0      -0.00756920       0.00000048       0.04270736      -0.03489631
S        2.35941759       2.72445364      13.14344527        1       0.51285920       0.00000284       2.07601001      -3.39263392
S        2.35941759       2.72445364       9.99999931        2       0.00000000       0.00000000       0.00000000       0.00000000
W        0.78648218       2.72444609      16.81516802        3      -0.00659367      -0.00000045      -0.03326400       0.03797687
Se       0.78648218       4.54074894      18.38689101        4       0.00000000       0.00000000       0.00000000       0.00000000
Se       0.78648218       4.54074894      15.24344504        5       0.51188367      -0.00000287      -2.08545337       3.38955336
W        2.35941759       5.44890036      16.81516802        3      -0.00659377       0.00000045      -0.03326425       0.03797678
Se       2.35941759       7.26520321      18.38689101        4       0.00000000       0.00000000       0.00000000       0.00000000
Se       2.35941759       7.26520321      15.24344504        5       0.51188302       0.00000287      -2.08545588       3.38954993
12
Lattice="3.145899764991676 0.0 0.0 0.0 5.448899730550542 0.0 0.0 0.0 28.386891255712495" Properties=species:S:1:pos:R:3:atom_types:I:1:energies:R:1:forces:R:3 energy=3.8102249516877347 free_energy=3.8102249516877347 stress="-0.004118350777937544 2.969384231065747e-14 -0.011874487292281058 2.969384231065747e-14 0.0012492461194316365 -5.999443943573064e-14 -0.011874487292281058 -5.999443943573064e-14 -0.05069215369935938" pbc="T T F"
Mo       0.52432397       0.45407131      11.57172229        0      -0.00129199      -0.02040457      -0.00014600      -0.04839609
S        0.52432397       2.27037415      13.14344527        1       0.95384807      -2.27285219       0.00014664      -5.75220142
S        0.52432397       2.27037415       9.99999931        2       0.00000000       0.00000000       0.00000000       0.00000000
Mo       2.09725938       3.17852558      11.57172229        0      -0.00129196      -0.02040452      -0.00014625      -0.04839615
S        2.09725938       4.99482842      13.14344527        1       0.95384836      -2.27285179       0.00014561      -5.75220289
S        2.09725938       4.99482842       9.99999931        2       0.00000000       0.00000000       0.00000000       0.00000000
W        1.04864039       0.45407131      16.81516802        3      -0.00129193       0.02040456      -0.00014615       0.04839638
Se       1.04864039       2.27037415      18.38689101        4       0.00000000       0.00000000       0.00000000       0.00000000
Se       1.04864039       2.27037415      15.24344504        5       0.95384833       2.27285174       0.00014679       5.75220266
W        2.62157580       3.17852558      16.81516802        3      -0.00129203       0.02040452      -0.00014610       0.04839587
Se       2.62157580       4.99482842      18.38689101        4       0.00000000       0.00000000       0.00000000       0.00000000
Se       2.62157580       4.99482842      15.24344504        5       0.95384811       2.27285224       0.00014546       5.75220164
12
Lattice="3.145899764991676 0.0 0.0 0.0 5.448899730550542 0.0 0.0 0.0 28.386891255712495" Properties=species:S:1:pos:R:3:atom_types:I:1:energies:R:1:forces:R:3 energy=1.4921663793158404 free_energy=1.4921663793158404 stress="-0.0015294340226491043 -0.004317391938611758 -0.004526412651007107 -0.004317391938611758 -0.0065148150434536445 -0.007840052144897023 -0.004526412651007107 -0.007840052144897023 -0.024109351360761623" pbc="T T F"
Mo       0.52432397      -0.00000378      11.57172229        0      -0.00900287      -0.02109058      -0.02627085      -0.03307657
S        0.52432397       1.81629907      13.14344527        1       0.38204428      -0.83871801      -1.46297501      -2.71064861
S        0.52432397       1.81629907       9.99999931        2       0.00000000       0.00000000       0.00000000       0.00000000
Mo       2.09725938       2.72445049      11.57172229        0      -0.00900290      -0.02109113      -0.02627057      -0.03307647
S        2.09725938       4.54075334      13.14344527        1       0.38204467      -0.83871647      -1.46297245      -2.71065015
S        2.09725938       4.54075334       9.99999931        2       0.00000000       0.00000000       0.00000000       0.00000000
W        1.04864039       0.90814608      16.81516802        3      -0.00900283       0.01220528       0.03140049       0.03307669
Se       1.04864039       2.72444892      18.38689101        4       0.00000000       0.00000000       0.00000000       0.00000000
Se       1.04864039       2.72444892      15.24344504        5       0.38204461       0.84760231       1.45784253       2.71064993
W        2.62157580       3.63260034      16.81516802        3      -0.00900294       0.01220556       0.03140060       0.03307621
Se       2.62157580       5.44890319      18.38689101        4       0.00000000       0.00000000       0.00000000       0.00000000
Se       2.62157580       5.44890319      15.24344504        5       0.38204435       0.84760303       1.45784526       2.71064897
12
Lattice="3.145899764991676 0.0 0.0 0.0 5.448899730550542 0.0 0.0 0.0 28.386891255712495" Properties=species:S:1:pos:R:3:atom_types:I:1:energies:R:1:forces:R:3 energy=0.6235839012731855 free_energy=0.6235839012731855 stress="-0.003628675049941947 -0.0035762732072384834 0.0035630337030937817 -0.0035762732072384834 -0.004355628115332462 0.002318442846932215 0.0035630337030937817 0.002318442846932215 -0.01447786405968476" pbc="T T F"
Mo       0.52432397      -0.45407886      11.57172229        0      -0.01373513       0.02042632       0.00958501      -0.02345276
S        0.52432397       1.36222399      13.14344527        1       0.16962755       0.62196919       0.42252436      -1.62772534
S        0.52432397       1.36222399       9.99999931        2       0.00000000       0.00000000       0.00000000       0.00000000
Mo       2.09725938       2.27037573      11.57172229        0      -0.01373483       0.02042694       0.00958571      -0.02345376
S        2.09725938       4.08667857      13.14344527        1       0.16963436       0.62199141       0.42255744      -1.62775910
S        2.09725938       4.08667857       9.99999931        2       0.00000000       0.00000000       0.00000000       0.00000000
W        1.04864039       1.36222116      16.81516802        3      -0.01674453      -0.02894104      -0.00943941       0.01150852
Se       1.04864039       3.17852400      18.38689101        4       0.00000000       0.00000000       0.00000000       0.00000000
Se       1.04864039       3.17852400      15.24344504        5       0.17264400      -0.61347739      -0.42270401       1.63970406
W        2.62157580       4.08667543      16.81516802        3      -0.01674476      -0.02894026      -0.00943897       0.01150797
Se       2.62157580       5.90297827      18.38689101        4       0.00000000       0.00000000       0.00000000       0.00000000
Se       2.62157580       5.90297827      15.24344504        5       0.17263724      -0.61345517      -0.42267014       1.63967042
12
Lattice="3.145899764991676 0.0 0.0 0.0 5.448899730550542 0.0 0.0 0.0 28.386891255712495" Properties=species:S:1:pos:R:3:atom_types:I:1:energies:R:1:forces:R:3 energy=1.4921926216598747 free_energy=1.4921926216598747 stress="-0.009007502373556494 3.479149401701803e-11 0.009052907031977378 3.479149401701803e-11 0.0009632332494990694 -4.413226235935408e-11 0.009052907031977378 -4.413226235935408e-11 -0.02410963626933094" pbc="T T F"
Mo       0.52432397      -0.90815363      11.57172229        0      -0.00900286       0.03329526      -0.00513020      -0.03307632
S        0.52432397       0.90814922      13.14344527        1       0.38203846       1.68629555       0.00512139      -2.71061764
S        0.52432397       0.90814922       9.99999931        2       0.00000000       0.00000000       0.00000000       0.00000000
Mo       2.09725938       1.81630064      11.57172229        0      -0.00900234       0.03329596      -0.00512968      -0.03307756
S        2.09725938       3.63260349      13.14344527        1       0.38206304       1.68638124       0.00513846      -2.71074491
S        2.09725938       3.63260349       9.99999931        2       0.00000000       0.00000000       0.00000000       0.00000000
W        1.04864039       1.81629624      16.81516802        3      -0.00900237      -0.03329595      -0.00513026       0.03307737
Se       1.04864039       3.63259909      18.38689101        4       0.00000000       0.00000000       0.00000000       0.00000000
Se       1.04864039       3.63259909      15.24344504        5       0.38206308      -1.68638126       0.00512147       2.71074510
W        2.62157580       4.54075051      16.81516802        3      -0.00900283      -0.03329528      -0.00512961       0.03307651
Se       2.62157580       6.35705336      18.38689101        4       0.00000000       0.00000000       0.00000000       0.00000000
Se       2.62157580       6.35705336      15.24344504        5       0.38203843      -1.68629553       0.00513842       2.71061745
12
Lattice="3.145899764991676 0.0 0.0 0.0 5.448899730550542 0.0 0.0 0.0 28.386891255712495" Properties=species:S:1:pos:R:3:atom_types:I:1:energies:R:1:forces:R:3 energy=0.6235840444072384 free_energy=0.6235840444072384 stress="-0.0036286762217813593 0.0035762732206399673 0.0035630351096892633 0.0035762732206399673 -0.004355627061089726 -0.0023184440446153603 0.0035630351096892633 -0.0023184440446153603 -0.01447786561784864" pbc="T T F"
Mo       0.52432397      -1.36222871      11.57172229        0      -0.01674499       0.02894017      -0.00943909      -0.01150762
S        0.52432397       0.45407414      13.14344527        1       0.17263379       0.61344375      -0.42266635      -1.63965303
S        0.52432397       0.45407414       9.99999931        2       0.00000000       0.00000000       0.00000000       0.00000000
Mo       2.09725938       1.36222556      11.57172229        0      -0.01674429       0.02894114      -0.00943930      -0.01150887
S        2.09725938       3.17852841      13.14344527        1       0.17264752       0.61348933      -0.42270822      -1.63972180
S        2.09725938       3.17852841       9.99999931        2       0.00000000       0.00000000       0.00000000       0.00000000
W        1.04864039       2.27037101      16.81516802        3      -0.01373464      -0.02042709       0.00958547       0.02345387
Se       1.04864039       4.08667385      18.38689101        4       0.00000000       0.00000000       0.00000000       0.00000000
Se       1.04864039       4.08667385      15.24344504        5       0.16963786      -0.62200337       0.42256204       1.62777680
W        2.62157580       4.99482528      16.81516802        3      -0.01373532      -0.02042618       0.00958526       0.02345266
Se       2.62157580       6.81112812      18.38689101        4       0.00000000       0.00000000       0.00000000       0.00000000
Se       2.62157580       6.81112812      15.24344504        5       0.16962412      -0.62195775       0.42252018       1.62770799
12
Lattice="3.145899764991676 0.0 0.0 0.0 5.448899730550542 0.0 0.0 0.0 28.386891255712495" Properties=species:S:1:pos:R:3:atom_types:I:1:energies:R:1:forces:R:3 energy=1.4921654547207255 free_energy=1.4921654547207255 stress="-0.0015294332454276194 0.004317391546782851 -0.004526409345158889 0.004317391546782851 -0.0065148165132292955 0.00784004939478791 -0.004526409345158889 0.00784004939478791 -0.02410934101777329" pbc="T T F"
Mo       0.52432397      -1.81630348      11.57172229        0      -0.00900304      -0.01220573       0.03140108      -0.03307624
S        0.52432397      -0.00000063      13.14344527        1       0.38204317      -0.84760437       1.45784844      -2.71064288
S        0.52432397      -0.00000063       9.99999931        2       0.00000000       0.00000000       0.00000000       0.00000000
Mo       2.09725938       0.90815079      11.57172229        0      -0.00900274      -0.01220509       0.03140002      -0.03307664
S        2.09725938       2.72445364      13.14344527        1       0.38204534      -0.84759972       1.45783825      -2.71065368
S        2.09725938       2.72445364       9.99999931        2       0.00000000       0.00000000       0.00000000       0.00000000
W        1.04864039       2.72444609      16.81516802        3      -0.00900277       0.02109092      -0.02627020       0.03307660
Se       1.04864039       4.54074894      18.38689101        4       0.00000000       0.00000000       0.00000000       0.00000000
Se       1.04864039       4.54074894      15.24344504        5       0.38204537       0.83871389      -1.46296807       2.71065371
W        2.62157580       5.44890036      16.81516802        3      -0.00900300       0.02109077      -0.02627122       0.03307641
Se       2.62157580       7.26520321      18.38689101        4       0.00000000       0.00000000       0.00000000       0.00000000
Se       2.62157580       7.26520321      15.24344504        5       0.38204314       0.83871932      -1.46297830       2.71064270
12
Lattice="3.145899764991676 0.0 0.0 0.0 5.448899730550542 0.0 0.0 0.0 28.386891255712495" Properties=species:S:1:pos:R:3:atom_types:I:1:energies:R:1:forces:R:3 energy=1.492192612663724 free_energy=1.492192612663724 stress="-0.00900750238259633 -3.2996173741514874e-14 -0.009052906997358738 -3.2996173741514874e-14 0.0009632332461975713 -5.417437472146344e-14 -0.009052906997358738 -5.417437472146344e-14 -0.024109636168811125" pbc="T T F"
Mo       0.26216544       0.45407131      11.57172229        0      -0.00900260      -0.03329557      -0.00512968      -0.03307698
S        0.26216544       2.27037415      13.14344527        1       0.38205064      -1.68633798       0.00513054      -2.71068068
S        0.26216544       2.27037415       9.99999931        2       0.00000000       0.00000000       0.00000000       0.00000000
Mo       1.83510086       3.17852558      11.57172229        0      -0.00900260      -0.03329565      -0.00513019      -0.03307690
S        1.83510086       4.99482842      13.14344527        1       0.38205086      -1.68633880       0.00512933      -2.71068184
S        1.83510086       4.99482842       9.99999931        2       0.00000000       0.00000000       0.00000000       0.00000000
W        1.31079891       0.45407131      16.81516802        3      -0.00900259       0.03329579      -0.00513013       0.03307701
Se       1.31079891       2.27037415      18.38689101        4       0.00000000       0.00000000       0.00000000       0.00000000
Se       1.31079891       2.27037415      15.24344504        5       0.38205085       1.68633863       0.00513099       2.71068169
W        2.88373432       3.17852558      16.81516802        3      -0.00900261       0.03329544      -0.00512974       0.03307688
Se       2.88373432       4.99482842      18.38689101        4       0.00000000       0.00000000       0.00000000       0.00000000
Se       2.88373432       4.99482842      15.24344504        5       0.38205066       1.68633815       0.00512888       2.71068083
12
Lattice="3.145899764991676 0.0 0.0 0.0 5.448899730550542 0.0 0.0 0.0 28.386891255712495" Properties=species:S:1:pos:R:3:atom_types:I:1:energies:R:1:forces:R:3 energy=0.6235840362599306 free_energy=0.6235840362599306 stress="-0.003628676190306983 -0.0035762732060258574 -0.003563035051881519 -0.0035762732060258574 -0.004355627084597635 -0.0023184439853806385 -0.003563035051881519 -0.0023184439853806385 -0.014477865528835072" pbc="T T F"
Mo       0.26216544      -0.00000378      11.57172229        0      -0.01674458      -0.02894075      -0.00943921      -0.01150849
S        0.26216544       1.81629907      13.14344527        1       0.17264069      -0.61346395      -0.42268754      -1.63968777
S        0.26216544       1.81629907       9.99999931        2       0.00000000       0.00000000       0.00000000       0.00000000
Mo       1.83510086       2.72445049      11.57172229        0      -0.01674471      -0.02894056      -0.00943919      -0.01150800
S        1.83510086       4.54075334      13.14344527        1       0.17264061      -0.61346911      -0.42268700      -1.63968704
S        1.83510086       4.54075334       9.99999931        2       0.00000000       0.00000000       0.00000000       0.00000000
W        1.31079891       0.90814608      16.81516802        3      -0.01373495       0.02042695       0.00958538       0.02345347
Se       1.31079891       2.72444892      18.38689101        4       0.00000000       0.00000000       0.00000000       0.00000000
Se       1.31079891       2.72444892      15.24344504        5       0.16963085       0.62198271       0.42254080       1.62774156
W        2.88373432       3.63260034      16.81516802        3      -0.01373501       0.02042632       0.00958536       0.02345306
Se       2.88373432       5.44890319      18.38689101        4       0.00000000       0.00000000       0.00000000       0.00000000
Se       2.88373432       5.44890319      15.24344504        5       0.16963112       0.62197839       0.42254141       1.62774321
12
Lattice="3.145899764991676 0.0 0.0 0.0 5.448899730550542 0.0 0.0 0.0 28.386891255712495" Properties=species:S:1:pos:R:3:atom_types:I:1:energies:R:1:forces:R:3 energy=1.4921659064047375 free_energy=1.4921659064047375 stress="-0.0015294336058925312 -0.004317391724007304 0.004526410934993137 -0.004317391724007304 -0.006514815807960378 0.00784005075113879 0.004526410934993137 0.00784005075113879 -0.024109346070373294" pbc="T T F"
Mo       0.26216544      -0.45407886      11.57172229        0      -0.00900296       0.01220615       0.03139997      -0.03307622
S        0.26216544       1.36222399      13.14344527        1       0.38204143       0.84762036       1.45782387      -2.71063388
S        0.26216544       1.36222399       9.99999931        2       0.00000000       0.00000000       0.00000000       0.00000000
Mo       1.83510086       2.27037573      11.57172229        0      -0.00900282       0.01220469       0.03140113      -0.03307666
S        1.83510086       4.08667857      13.14344527        1       0.38204730       0.84758433       1.45786336      -2.71066382
S        1.83510086       4.08667857       9.99999931        2       0.00000000       0.00000000       0.00000000       0.00000000
W        1.31079891       1.36222116      16.81516802        3      -0.00900281      -0.02109026      -0.02627092       0.03307671
Se       1.31079891       3.17852400      18.38689101        4       0.00000000       0.00000000       0.00000000       0.00000000
Se       1.31079891       3.17852400      15.24344504        5       0.38204726      -0.83869883      -1.46299372       2.71066359
W        2.88373432       4.08667543      16.81516802        3      -0.00900296      -0.02109144      -0.02627050       0.03307631