12
Lattice="3.145899764991676 0.0 0.0 0.0 5.448899730550542 0.0 0.0 0.0 33.486888681027104" Properties=species:S:1:pos:R:3:atom_types:I:1:energies:R:1:forces:R:3 energy=-0.04161655467578462 free_energy=-0.04161655467578462 stress="7.016802516209354e-05 -1.174669397695032e-16 1.319724920099683e-16 -1.174669397695032e-16 7.016837926819477e-05 -5.275239044139896e-11 1.319724920099683e-16 -5.275239044139896e-11 0.00040188633723951486" pbc="T T F"
Mo       0.78648218      -1.36222871      11.57172229        0      -0.00460039      -0.00000001      -0.00000001       0.00583877
S        0.78648218       0.45407414      13.14344527        1      -0.00580375      -0.00000000      -0.00000000       0.00763254
S        0.78648218       0.45407414       9.99999931        2       0.00000000       0.00000000       0.00000000       0.00000000
Mo       2.35941759       1.36222556      11.57172229        0      -0.00460039       0.00000001      -0.00000001       0.00583876
S        2.35941759       3.17852841      13.14344527        1      -0.00580375       0.00000000      -0.00000000       0.00763254
S        2.35941759       3.17852841       9.99999931        2       0.00000000       0.00000000       0.00000000       0.00000000
Mo       0.78648218       2.27037101      21.91516765        3      -0.00460245      -0.00000001       0.00000001      -0.00583784
S        0.78648218       4.08667385      23.48689063        4       0.00000000       0.00000000       0.00000000       0.00000000
S        0.78648218       4.08667385      20.34344467        5      -0.00580169      -0.00000000       0.00000000      -0.00763346
Mo       2.35941759       4.99482528      21.91516765        3      -0.00460245       0.00000001       0.00000001      -0.00583785
S        2.35941759       6.81112812      23.48689063        4       0.00000000       0.00000000       0.00000000       0.00000000
S        2.35941759       6.81112812      20.34344467        5      -0.00580169       0.00000000      -0.00000000      -0.00763346
12
Lattice="3.145899764991676 0.0 0.0 0.0 5.448899730550542 0.0 0.0 0.0 29.68689029099859" Properties=species:S:1:pos:R:3:atom_types:I:1:energies:R:1:forces:R:3 energy=-0.40849178369207356 free_energy=-0.40849178369207356 stress="0.0005072283212664264 1.8006195636440499e-13 0.0001720971498532216 1.8006195636440499e-13 0.0009284478806517042 -4.2672016746434804e-13 0.0001720971498532216 -4.2672016746434804e-13 0.0010043619191967474" pbc="T T F"
Mo      -0.13107203       0.45407131      11.57172229        0      -0.01690705       0.00525742      -0.00044907       0.00155360
S       -0.13107203       2.27037415      13.14344527        1      -0.08521590       0.02276526       0.00044909       0.07217228
S       -0.13107203       2.27037415       9.99999931        2       0.00000000       0.00000000       0.00000000       0.00000000
Mo       1.44186339       3.17852558      11.57172229        0      -0.01690705       0.00525738      -0.00044918       0.00155360
S        1.44186339       4.99482842      13.14344527        1      -0.08521590       0.02276526       0.00044916       0.07217230
S        1.44186339       4.99482842       9.99999931        2       0.00000000       0.00000000       0.00000000       0.00000000
Mo       1.70403638       0.45407131      18.11516769        3      -0.01690705      -0.00525739      -0.00044906      -0.00155360
S        1.70403638       2.27037415      19.68689067        4       0.00000000       0.00000000       0.00000000       0.00000000
S        1.70403638       2.27037415      16.54344502        5      -0.08521590      -0.02276526       0.00044908      -0.07217229
Mo       3.27697179       3.17852558      18.11516769        3      -0.01690704      -0.00525741      -0.00044919      -0.00155359
S        3.27697179       4.99482842      19.68689067        4       0.00000000       0.00000000       0.00000000       0.00000000
S        3.27697179       4.99482842      16.54344502        5      -0.08521590      -0.02276526       0.00044917      -0.07217229
12
Lattice="3.145899764991676 0.0 0.0 0.0 5.448899730550542 0.0 0.0 0.0 30.486889455336208" Properties=species:S:1:pos:R:3:atom_types:I:1:energies:R:1:forces:R:3 energy=-0.2647874494350925 free_energy=-0.2647874494350925 stress="0.0005094852721547416 -4.238882249985488e-05 -3.184636124251526e-05 -4.238882249985488e-05 0.0004831707534961051 -2.8856411599464113e-05 -3.184636124251526e-05 -2.8856411599464113e-05 0.0013789055218034146" pbc="T T F"
Mo      -0.39323024      -1.36222871      11.57172229        0      -0.01532696      -0.00275937      -0.00226130       0.00551523
S       -0.39323024       0.45407414      13.14344527        1      -0.05086987      -0.00210635      -0.00234541       0.07616500
S       -0.39323024       0.45407414       9.99999931        2       0.00000000       0.00000000       0.00000000       0.00000000
Mo       1.17970518       1.36222556      11.57172229        0      -0.01532699      -0.00275941      -0.00226124       0.00551529
S        1.17970518       3.17852841      13.14344527        1      -0.05086991      -0.00210636      -0.00234533       0.07616517
S        1.17970518       3.17852841       9.99999931        2       0.00000000       0.00000000       0.00000000       0.00000000
Mo       1.96619459       2.27037101      18.91516780        3      -0.01531343       0.00265113       0.00228720      -0.00545902
S        1.96619459       4.08667385      20.48689078        4       0.00000000       0.00000000       0.00000000       0.00000000
S        1.96619459       4.08667385      17.34344481        5      -0.05088346       0.00221465       0.00231938      -0.07622144
Mo       3.53913000       4.99482528      18.91516780        3      -0.01531341       0.00265108       0.00228726      -0.00545896
S        3.53913000       6.81112812      20.48689078        4       0.00000000       0.00000000       0.00000000       0.00000000
S        3.53913000       6.81112812      17.34344481        5      -0.05088342       0.00221464       0.00231946      -0.07622127
12
Lattice="3.145899764991676 0.0 0.0 0.0 5.448899730550542 0.0 0.0 0.0 31.48688919723317" Properties=species:S:1:pos:R:3:atom_types:I:1:energies:R:1:forces:R:3 energy=-0.14248658522964094 free_energy=-0.14248658522964094 stress="0.0002647340272346569 6.724043605779653e-06 2.540292272260052e-07 6.724043605779653e-06 0.0002501252553787484 6.41505408383596e-06 2.540292272260052e-07 6.41505408383596e-06 0.0009453397019965325" pbc="T T F"
Mo       0.65540292      -1.58926609      11.57172229        0      -0.01199873       0.00011251       0.00106217       0.00823225
S        0.65540292       0.22703675      13.14344527        1      -0.02362292      -0.00001776       0.00008933       0.03585727
S        0.65540292       0.22703675       9.99999931        2       0.00000000       0.00000000       0.00000000       0.00000000
Mo       2.22833833       1.13518818      11.57172229        0      -0.01199871       0.00011260       0.00106214       0.00823221
S        2.22833833       2.95149102      13.14344527        1      -0.02362293      -0.00001776       0.00008933       0.03585729
S        2.22833833       2.95149102       9.99999931        2       0.00000000       0.00000000       0.00000000       0.00000000
Mo       0.91756144       2.49740871      19.91516754        3      -0.01199531      -0.00010485      -0.00105482      -0.00821641
S        0.91756144       4.31371155      21.48689052        4       0.00000000       0.00000000       0.00000000       0.00000000
S        0.91756144       4.31371155      18.34344487        5      -0.02362633       0.00001001      -0.00009664      -0.03587308
Mo       2.49049685       5.22186298      19.91516754        3      -0.01199534      -0.00010476      -0.00105486      -0.00821646
S        2.49049685       7.03816582      21.48689052        4       0.00000000       0.00000000       0.00000000       0.00000000
S        2.49049685       7.03816582      18.34344487        5      -0.02362632       0.00001001      -0.00009665      -0.03587307
12
Lattice="3.145899764991676 0.0 0.0 0.0 5.448899730550542 0.0 0.0 0.0 31.986889068181654" Properties=species:S:1:pos:R:3:atom_types:I:1:energies:R:1:forces:R:3 energy=-0.1033271474641248 free_energy=-0.1033271474641248 stress="0.00019860579030435565 1.4617326601944643e-14 -2.975452568348122e-15 1.4617326601944643e-14 0.0001955291058497916 -5.069684644058526e-06 -2.975452568348122e-15 -5.069684644058526e-06 0.0007268083368531996" pbc="T T F"
Mo       0.00000724      -1.13519132      11.57172229        0      -0.00956511       0.00000002      -0.00047947       0.00733391
S        0.00000724       0.68111184      13.14344527        1      -0.01626668       0.00000000      -0.00005038       0.02357806
S        0.00000724       0.68111184       9.99999931        2       0.00000000       0.00000000       0.00000000       0.00000000
Mo       1.57294265       1.58926326      11.57172229        0      -0.00956511      -0.00000002      -0.00047945       0.00733390
S        1.57294265       3.40556611      13.14344527        1      -0.01626668      -0.00000000      -0.00005038       0.02357806
S        1.57294265       3.40556611       9.99999931        2       0.00000000       0.00000000       0.00000000       0.00000000
Mo       1.57295712       2.04333362      20.41516772        3      -0.00956520       0.00000002       0.00047894      -0.00733775
S        1.57295712       3.85963647      21.98689071        4       0.00000000       0.00000000       0.00000000       0.00000000
S        1.57295712       3.85963647      18.84344474        5      -0.01626659       0.00000000       0.00005089      -0.02357420
Mo       3.14589253       4.76778789      20.41516772        3      -0.00956520      -0.00000002       0.00047896      -0.00733776
S        3.14589253       6.58409074      21.98689071        4       0.00000000       0.00000000       0.00000000       0.00000000
S        3.14589253       6.58409074      18.84344474        5      -0.01626659      -0.00000000       0.00005089      -0.02357420
12
Lattice="3.145899764991676 0.0 0.0 0.0 5.448899730550542 0.0 0.0 0.0 30.38689073950642" Properties=species:S:1:pos:R:3:atom_types:I:1:energies:R:1:forces:R:3 energy=-0.2786208684899079 free_energy=-0.2786208684899079 stress="0.0005626460727994889 4.142473185560817e-05 3.0135084101788713e-05 4.142473185560817e-05 0.0005148130454725554 -5.219610051524243e-05 3.0135084101788713e-05 -5.219610051524243e-05 0.0013529227949495664" pbc="T T F"
Mo       0.26216544      -1.36222871      11.57172229        0      -0.01524375       0.00211725      -0.00354328       0.00440524
S        0.26216544       0.45407414      13.14344527        1      -0.05441154       0.00271342      -0.00482356       0.07815839
S        0.26216544       0.45407414       9.99999931        2       0.00000000       0.00000000       0.00000000       0.00000000
Mo       1.83510086       1.36222556      11.57172229        0      -0.01524365       0.00211708      -0.00354321       0.00440505
S        1.83510086       3.17852841      13.14344527        1      -0.05441150       0.00271339      -0.00482377       0.07815805
S        1.83510086       3.17852841       9.99999931        2       0.00000000       0.00000000       0.00000000       0.00000000
Mo       1.31079891       2.27037101      18.81516782        3      -0.01524365      -0.00200981       0.00360515      -0.00440505
S        1.31079891       4.08667385      20.38689080        4       0.00000000       0.00000000       0.00000000       0.00000000
S        1.31079891       4.08667385      17.24344484        5      -0.05441150      -0.00282067       0.00476183      -0.07815805
Mo       2.88373432       4.99482528      18.81516782        3      -0.01524375      -0.00200997       0.00360521      -0.00440524
S        2.88373432       6.81112812      20.38689080        4       0.00000000       0.00000000       0.00000000       0.00000000
S        2.88373432       6.81112812      17.24344484        5      -0.05441154      -0.00282069       0.00476162      -0.07815839
12
Lattice="3.145899764991676 0.0 0.0 0.0 5.448899730550542 0.0 0.0 0.0 28.386891255712495" Properties=species:S:1:pos:R:3:atom_types:I:1:energies:R:1:forces:R:3 energy=0.28456042228377193 free_energy=0.28456042228377193 stress="-0.0037211519981574454 2.036260258276966e-13 8.350862687710382e-13 2.036260258276966e-13 -0.0037211279914241414 -8.706630487475523e-08 8.350862687710382e-13 -8.706630487475523e-08 -0.010806639107220444" pbc="T T F"
Mo       0.78648218      -1.36222871      11.57172229        0      -0.02047191      -0.00000117      -0.00000095      -0.00272669
S        0.78648218       0.45407414      13.14344527        1       0.09161097      -0.00002051      -0.00001246      -1.23536154
S        0.78648218       0.45407414       9.99999931        2       0.00000000       0.00000000       0.00000000       0.00000000
Mo       2.35941759       1.36222556      11.57172229        0      -0.02047171       0.00000117      -0.00000094      -0.00272698
S        2.35941759       3.17852841      13.14344527        1       0.09161286       0.00002051      -0.00001372      -1.23537098
S        2.35941759       3.17852841       9.99999931        2       0.00000000       0.00000000       0.00000000       0.00000000
Mo       0.78648218       2.27037101      16.81516802        3      -0.01694917      -0.00000126       0.00000079       0.01588768
S        0.78648218       4.08667385      18.38689101        4       0.00000000       0.00000000       0.00000000       0.00000000
S        0.78648218       4.08667385      15.24344504        5       0.08809032      -0.00002041       0.00001386       1.22221029
Mo       2.35941759       4.99482528      16.81516802        3      -0.01694934       0.00000126       0.00000090       0.01588762
S        2.35941759       6.81112812      18.38689101        4       0.00000000       0.00000000       0.00000000       0.00000000
S        2.35941759       6.81112812      15.24344504        5       0.08808840       0.00002041       0.00001251       1.22220060
12
Lattice="3.145899764991676 0.0 0.0 0.0 5.448899730550542 0.0 0.0 0.0 33.98688855197559" Properties=species:S:1:pos:R:3:atom_types:I:1:energies:R:1:forces:R:3 energy=-0.029511277231678804 free_energy=-0.029511277231678804 stress="5.291643326746746e-05 -1.6906040006463061e-06 -5.274296118047832e-06 -1.6906040006463061e-06 5.486889876939078e-05 -3.045127524325566e-06 -5.274296118047832e-06 -3.045127524325566e-06 0.0003281841895880806" pbc="T T F"
Mo      -0.39323024      -1.13519132      11.57172229        0      -0.00319097      -0.00023063      -0.00013316       0.00495553
S       -0.39323024       0.68111184      13.14344527        1      -0.00418685      -0.00000460      -0.00000266       0.00543679
S       -0.39323024       0.68111184       9.99999931        2       0.00000000       0.00000000       0.00000000       0.00000000
Mo       1.17970518       1.58926326      11.57172229        0      -0.00319097      -0.00023063      -0.00013316       0.00495554
S        1.17970518       3.40556611      13.14344527        1      -0.00418685      -0.00000460      -0.00000266       0.00543679
S        1.17970518       3.40556611       9.99999931        2       0.00000000       0.00000000       0.00000000       0.00000000
Mo       1.96619459       2.04333362      22.41516752        3      -0.00319145       0.00023089       0.00013331      -0.00495586
S        1.96619459       3.85963647      23.98689050        4       0.00000000       0.00000000       0.00000000       0.00000000
S        1.96619459       3.85963647      20.84344454        5      -0.00418637       0.00000434       0.00000251      -0.00543647
Mo       3.53913000       4.76778789      22.41516752        3      -0.00319144       0.00023089       0.00013331      -0.00495586
S        3.53913000       6.58409074      23.98689050        4       0.00000000       0.00000000       0.00000000       0.00000000
S        3.53913000       6.58409074      20.84344454        5      -0.00418637       0.00000434       0.00000251      -0.00543647
12
Lattice="3.145899764991676 0.0 0.0 0.0 5.448899730550542 0.0 0.0 0.0 33.98688855197559" Properties=species:S:1:pos:R:3:atom_types:I:1:energies:R:1:forces:R:3 energy=-0.029821433113941448 free_energy=-0.029821433113941448 stress="4.937153452684198e-05 -9.982476340354854e-17 3.909579842216235e-17 -9.982476340354854e-17 5.3948961856373886e-05 -1.5594324388357665e-06 3.909579842216235e-17 -1.5594324388357665e-06 0.0003283090902689127" pbc="T T F"
Mo       0.78648218      -1.13519132      11.57172229        0      -0.00326525      -0.00000001      -0.00008533       0.00495605
S        0.78648218       0.68111184      13.14344527        1      -0.00419010      -0.00000000      -0.00000389       0.00543907
S        0.78648218       0.68111184       9.99999931        2       0.00000000       0.00000000       0.00000000       0.00000000
Mo       2.35941759       1.58926326      11.57172229        0      -0.00326525       0.00000001      -0.00008532       0.00495604
S        2.35941759       3.40556611      13.14344527        1      -0.00419010       0.00000000      -0.00000389       0.00543907
S        2.35941759       3.40556611       9.99999931        2       0.00000000       0.00000000       0.00000000       0.00000000
Mo       0.78648218       2.04333362      22.41516752        3      -0.00326449      -0.00000001       0.00008732      -0.00496484
S        0.78648218       3.85963647      23.98689050        4       0.00000000       0.00000000       0.00000000       0.00000000
S        0.78648218       3.85963647      20.84344454        5      -0.00419087      -0.00000000       0.00000190      -0.00543027
Mo       2.35941759       4.76778789      22.41516752        3      -0.00326449       0.00000001       0.00008732      -0.00496484
S        2.35941759       6.58409074      23.98689050        4       0.00000000       0.00000000       0.00000000       0.00000000
S        2.35941759       6.58409074      20.84344454        5      -0.00419087       0.00000000       0.00000190      -0.00543027
12
Lattice="3.145899764991676 0.0 0.0 0.0 5.448899730550542 0.0 0.0 0.0 29.086888558320553" Properties=species:S:1:pos:R:3:atom_types:I:1:energies:R:1:forces:R:3 energy=0.059064575926633806 free_energy=0.059064575926633806 stress="0.0005556525606172516 -6.43914437415468e-12 -0.001951509496449142 -6.43914437415468e-12 0.0013080911034213383 -1.7835001913933195e-11 -0.001951509496449142 -1.7835001913933195e-11 -0.009396815560663014" pbc="T T F"
Mo      -0.26215097      -0.90815363      11.57172229        0      -0.01118629      -0.01045707      -0.00015080      -0.01510254
S       -0.26215097       0.90814922      13.14344527        1       0.02595474      -0.30387456       0.00014808      -0.80460576
S       -0.26215097       0.90814922       9.99999931        2       0.00000000       0.00000000       0.00000000       0.00000000
Mo       1.31078444       1.81630064      11.57172229        0      -0.01118646      -0.01045770      -0.00015050      -0.01510221
S        1.31078444       3.63260349      13.14344527        1       0.02595030      -0.30388192       0.00015322      -0.80457953
S        1.31078444       3.63260349       9.99999931        2       0.00000000       0.00000000       0.00000000       0.00000000
Mo       1.83511533       1.81629624      17.51516784        3      -0.01118646       0.01045769      -0.00015079       0.01510219
S        1.83511533       3.63259909      19.08689082        4       0.00000000       0.00000000       0.00000000       0.00000000
S        1.83511533       3.63259909      15.94344486        5       0.02595030       0.30388193       0.00014808       0.80457955
Mo       3.40805074       4.54075051      17.51516784        3      -0.01118629       0.01045707      -0.00015051       0.01510257
S        3.40805074       6.35705336      19.08689082        4       0.00000000       0.00000000       0.00000000       0.00000000
S        3.40805074       6.35705336      15.94344486        5       0.02595473       0.30387456       0.00015323       0.80460573
12
Lattice="3.145899764991676 0.0 0.0 0.0 5.448899730550542 0.0 0.0 0.0 29.486889713439247" Properties=species:S:1:pos:R:3:atom_types:I:1:energies:R:1:forces:R:3 energy=-0.4414431721915071 free_energy=-0.4414431721915071 stress="0.000885865323723835 -0.00014642310882455114 -1.1810751367103854e-05 -0.00014642310882455114 0.000519303023667809 -0.00027811908343792737 -1.1810751367103854e-05 -0.00027811908343792737 0.0005854484919072874" pbc="T T F"
Mo      -0.13107203      -1.58926609      11.57172229        0      -0.01746886       0.00048805      -0.00742914       0.00093203
S       -0.13107203       0.22703675      13.14344527        1      -0.09289197      -0.00236856      -0.03644220       0.04377608
S       -0.13107203       0.22703675       9.99999931        2       0.00000000       0.00000000       0.00000000       0.00000000
Mo       1.44186339       1.13518818      11.57172229        0      -0.01746881       0.00048756      -0.00742908       0.00093195
S        1.44186339       2.95149102      13.14344527        1      -0.09289194      -0.00236966      -0.03644233       0.04377560
S        1.44186339       2.95149102       9.99999931        2       0.00000000       0.00000000       0.00000000       0.00000000
Mo       1.70403638       2.49740871      17.91516774        3      -0.01773650      -0.00094356       0.00807042      -0.00218172
S        1.70403638       4.31371155      19.48689072        4       0.00000000       0.00000000       0.00000000       0.00000000
S        1.70403638       4.31371155      16.34344476        5      -0.09262425       0.00282566       0.03580099      -0.04252583
Mo       3.27697179       5.22186298      17.91516774        3      -0.01773656      -0.00094400       0.00807046      -0.00218183
S        3.27697179       7.03816582      19.48689072        4       0.00000000       0.00000000       0.00000000       0.00000000
S        3.27697179       7.03816582      16.34344476        5      -0.09262428       0.00282451       0.03580088      -0.04252627
12
Lattice="3.145899764991676 0.0 0.0 0.0 5.448899730550542 0.0 0.0 0.0 28.986889842490765" Properties=species:S:1:pos:R:3:atom_types:I:1:energies:R:1:forces:R:3 energy=-0.37409929869428216 free_energy=-0.37409929869428216 stress="-0.000966688333929146 -1.7919841100237988e-13 -3.9800448734523043e-19 -1.7919841100237988e-13 0.0012388594231462283 -5.3090208334962354e-12 -3.9800448734523043e-19 -5.3090208334962354e-12 -0.002803228622124275" pbc="T T F"
Mo       0.78648218      -0.90815363      11.57172229        0      -0.01722485      -0.00000070      -0.00256382      -0.00306476
S        0.78648218       0.90814922      13.14344527        1      -0.07629997      -0.00000945       0.00256282      -0.25130798
S        0.78648218       0.90814922       9.99999931        2       0.00000000       0.00000000       0.00000000       0.00000000
Mo       2.35941759       1.81630064      11.57172229        0      -0.01722485       0.00000070      -0.00256341      -0.00306479
S        2.35941759       3.63260349      13.14344527        1      -0.07629998       0.00000945       0.00256440      -0.25130795
S        2.35941759       3.63260349       9.99999931        2       0.00000000       0.00000000       0.00000000       0.00000000
Mo       0.78648218       1.81629624      17.41516787        3      -0.01722485      -0.00000070      -0.00256382       0.00306476
S        0.78648218       3.63259909      18.98689085        4       0.00000000       0.00000000       0.00000000       0.00000000
S        0.78648218       3.63259909      15.84344489        5      -0.07629997      -0.00000945       0.00256283       0.25130798
Mo       2.35941759       4.54075051      17.41516787        3      -0.01722485       0.00000070      -0.00256341       0.00306479
S        2.35941759       6.35705336      18.98689085        4       0.00000000       0.00000000       0.00000000       0.00000000
S        2.35941759       6.35705336      15.84344489        5      -0.07629998       0.00000945       0.00256440       0.25130795
12
Lattice="3.145899764991676 0.0 0.0 0.0 5.448899730550542 0.0 0.0 0.0 29.386890997609456" Properties=species:S:1:pos:R:3:atom_types:I:1:energies:R:1:forces:R:3 energy=-0.44884191900170894 free_energy=-0.44884191900170894 stress="0.00088715757335602 -0.0003140566281938667 1.4868521472828061e-05 -0.0003140566281938667 0.00045262826248025943 0.0002093075475589844 1.4868521472828061e-05 0.0002093075475589844 0.00020196298463064536" pbc="T T F"
Mo      -0.52430950      -1.58926609      11.57172229        0      -0.01763290      -0.00156923       0.00557206       0.00117907
S       -0.52430950       0.22703675      13.14344527        1      -0.09457747       0.00410415       0.02735753       0.01453709
S       -0.52430950       0.22703675       9.99999931        2       0.00000000       0.00000000       0.00000000       0.00000000
Mo       1.04862591       1.13518818      11.57172229        0      -0.01763294      -0.00156902       0.00557222       0.00117917
S        1.04862591       2.95149102      13.14344527        1      -0.09457764       0.00410449       0.02735837       0.01453783
S        1.04862591       2.95149102       9.99999931        2       0.00000000       0.00000000       0.00000000       0.00000000
Mo       2.09727385       2.49740871      17.81516777        3      -0.01742058       0.00021814      -0.00460622      -0.00018701
S        2.09727385       4.31371155      19.38689075        4       0.00000000       0.00000000       0.00000000       0.00000000
S        2.09727385       4.31371155      16.24344478        5      -0.09479001      -0.00275360      -0.02832436      -0.01552999
Mo       3.67020926       5.22186298      17.81516777        3      -0.01742054       0.00021829      -0.00460604      -0.00018694
S        3.67020926       7.03816582      19.38689075        4       0.00000000       0.00000000       0.00000000       0.00000000
S        3.67020926       7.03816582      16.24344478        5      -0.09478983      -0.00275320      -0.02832355      -0.01552922
12
Lattice="3.145899764991676 0.0 0.0 0.0 5.448899730550542 0.0 0.0 0.0 28.58688868737207" Properties=species:S:1:pos:R:3:atom_types:I:1:energies:R:1:forces:R:3 energy=1.9702382749730996 free_energy=1.9702382749730996 stress="0.0006147552469655831 0.0013429335827928024 -0.003669866452321711 0.0013429335827928024 -0.0009359457432562438 0.006356449633071999 -0.003669866452321711 0.006356449633071999 -0.033674485780773644" pbc="T T F"
Mo      -0.13107203      -0.68111624      11.57172229        0      -0.00536130      -0.00831114       0.01486437      -0.03399313
S       -0.13107203       1.13518660      13.14344527        1       0.49792833      -0.65113177       1.12738591      -3.50685799
S       -0.13107203       1.13518660       9.99999931        2       0.00000000       0.00000000       0.00000000       0.00000000
Mo       1.44186339       2.04333803      11.57172229        0      -0.00536154      -0.00831243       0.01486503      -0.03399275
S        1.44186339       3.85964087      13.14344527        1       0.49791364      -0.65118818       1.12738015      -3.50677443
S        1.44186339       3.85964087       9.99999931        2       0.00000000       0.00000000       0.00000000       0.00000000
Mo       1.70403638       1.58925854      17.01516797        3      -0.00536154       0.00871772      -0.01463101       0.03399278
S        1.70403638       3.40556139      18.58689095        4       0.00000000       0.00000000       0.00000000       0.00000000
S        1.70403638       3.40556139      15.44344499        5       0.49791364       0.65078289      -1.12761417       3.50677441
Mo       3.27697179       4.31371281      17.01516797        3      -0.00536127       0.00871646      -0.01463043       0.03399334
S        3.27697179       6.13001566      18.58689095        4       0.00000000       0.00000000       0.00000000       0.00000000
S        3.27697179       6.13001566      15.44344499        5       0.49792831       0.65072645      -1.12761985       3.50685778
12
Lattice="3.145899764991676 0.0 0.0 0.0 5.448899730550542 0.0 0.0 0.0 31.48688919723317" Properties=species:S:1:pos:R:3:atom_types:I:1:energies:R:1:forces:R:3 energy=-0.13949993274576808 free_energy=-0.13949993274576808 stress="0.00028141030745750943 4.514389641601128e-06 9.10467494543018e-06 4.514389641601128e-06 0.0002761983594438356 -1.5769764952166772e-05 9.10467494543018e-06 -1.5769764952166772e-05 0.0009017889689327265" pbc="T T F"
Mo      -0.65538844       0.22703361      11.57172229        0      -0.01134560       0.00059778      -0.00102929       0.00718290
S       -0.65538844       2.04333646      13.14344527        1      -0.02352939       0.00011710      -0.00020894       0.03527596
S       -0.65538844       2.04333646       9.99999931        2       0.00000000       0.00000000       0.00000000       0.00000000
Mo       0.91754697       2.95148788      11.57172229        0      -0.01134560       0.00059780      -0.00102933       0.00718291
S        0.91754697       4.76779104      13.14344527        1      -0.02352938       0.00011710      -0.00020893       0.03527595
S        0.91754697       4.76779104       9.99999931        2       0.00000000       0.00000000       0.00000000       0.00000000
Mo       2.22835280       0.68110869      19.91516754        3      -0.01134560      -0.00059251       0.00103238      -0.00718292
S        2.22835280       2.49741154      21.48689052        4       0.00000000       0.00000000       0.00000000       0.00000000
S        2.22835280       2.49741154      18.34344487        5      -0.02352938      -0.00012239       0.00020587      -0.03527595