12
Lattice="3.145899764991676 0.0 0.0 0.0 5.448899730550542 0.0 0.0 0.0 29.786889006828382" Properties=species:S:1:pos:R:3:atom_types:I:1:energies:R:1:forces:R:3 energy=-0.3979965586265949 free_energy=-0.3979965586265949 stress="0.0007854097574651293 7.739464197755876e-05 3.0489094217360046e-06 7.739464197755876e-05 0.0005950283090894347 -0.000125275804409243 3.0489094217360046e-06 -0.000125275804409243 0.0012831616954603754" pbc="T T F"
Mo      -0.65538844      -0.22704116      11.57172229        0      -0.01721950      -0.00046691      -0.00536640       0.00275358
S       -0.65538844       1.58926169      13.14344527        1      -0.08227957       0.00098331      -0.01534335       0.08809054
S       -0.65538844       1.58926169       9.99999931        2       0.00000000       0.00000000       0.00000000       0.00000000
Mo       0.91754697       2.49741311      11.57172229        0      -0.01721962      -0.00046650      -0.00536659       0.00275379
S        0.91754697       4.31371596      13.14344527        1      -0.08227959       0.00098368      -0.01534363       0.08809089
S        0.91754697       4.31371596       9.99999931        2       0.00000000       0.00000000       0.00000000       0.00000000
W        2.22835280       1.13518377      18.21516798        3      -0.01735206       0.00069490       0.00568272      -0.00337620
Se       2.22835280       2.95148662      19.78689064        4       0.00000000       0.00000000       0.00000000       0.00000000
Se       2.22835280       2.95148662      16.64344500        5      -0.08214715      -0.00121208       0.01502750      -0.08746849
W        3.80128821       3.85963804      18.21516798        3      -0.01735194       0.00069532       0.00568253      -0.00337599
Se       3.80128821       5.67594089      19.78689064        4       0.00000000       0.00000000       0.00000000       0.00000000
Se       3.80128821       5.67594089      16.64344500        5      -0.08214713      -0.00121172       0.01502722      -0.08746814
12
Lattice="3.145899764991676 0.0 0.0 0.0 5.448899730550542 0.0 0.0 0.0 30.086891446117285" Properties=species:S:1:pos:R:3:atom_types:I:1:energies:R:1:forces:R:3 energy=-0.3455405166346982 free_energy=-0.3455405166346982 stress="0.0006011007256385041 -8.240708803859641e-16 -1.1741312248346448e-14 -8.240708803859641e-16 0.0006011016434452148 1.5412386351766611e-09 -1.1741312248346448e-14 1.5412386351766611e-09 0.0015820655852664654" pbc="T T F"
Mo       0.78648218      -0.45407886      11.57172229        0      -0.01726766      -0.00000023       0.00000018       0.00555512
S        0.78648218       1.36222399      13.14344527        1      -0.06911745      -0.00000017       0.00000013       0.09704976
S        0.78648218       1.36222399       9.99999931        2       0.00000000       0.00000000       0.00000000       0.00000000
Mo       2.35941759       2.27037573      11.57172229        0      -0.01726771       0.00000023       0.00000020       0.00555521
S        2.35941759       4.08667857      13.14344527        1      -0.06911743       0.00000017       0.00000007       0.09704978
S        2.35941759       4.08667857       9.99999931        2       0.00000000       0.00000000       0.00000000       0.00000000
W        0.78648218       1.36222116      18.51516790        3      -0.01735144      -0.00000023      -0.00000021      -0.00594103
Se       0.78648218       3.17852400      20.08689088        4       0.00000000       0.00000000       0.00000000       0.00000000
Se       0.78648218       3.17852400      16.94344492        5      -0.06903371      -0.00000017      -0.00000007      -0.09666396
W        2.35941759       4.08667543      18.51516790        3      -0.01735138       0.00000023      -0.00000018      -0.00594094
Se       2.35941759       5.90297827      20.08689088        4       0.00000000       0.00000000       0.00000000       0.00000000
Se       2.35941759       5.90297827      16.94344492        5      -0.06903373       0.00000017      -0.00000013      -0.09666394
12
Lattice="3.145899764991676 0.0 0.0 0.0 5.448899730550542 0.0 0.0 0.0 28.386891255712495" Properties=species:S:1:pos:R:3:atom_types:I:1:energies:R:1:forces:R:3 energy=0.6235837679723637 free_energy=0.6235837679723637 stress="-0.003628673985960837 -0.003576273187059433 0.0035630324120256712 -0.003576273187059433 -0.00435562907461143 0.002318441735923555 0.0035630324120256712 0.002318441735923555 -0.01447786260849727" pbc="T T F"
Mo      -0.26215097      -1.81630348      11.57172229        0      -0.01373495       0.02042694       0.00958537      -0.02345347
S       -0.26215097      -0.00000063      13.14344527        1       0.16963079       0.62198223       0.42254041      -1.62774124
S       -0.26215097      -0.00000063       9.99999931        2       0.00000000       0.00000000       0.00000000       0.00000000
Mo       1.31078444       0.90815079      11.57172229        0      -0.01373501       0.02042631       0.00958534      -0.02345306
S        1.31078444       2.72445364      13.14344527        1       0.16963106       0.62197790       0.42254100      -1.62774287
S        1.31078444       2.72445364       9.99999931        2       0.00000000       0.00000000       0.00000000       0.00000000
W        1.83511533       2.72444609      16.81516802        3      -0.01674458      -0.02894074      -0.00943919       0.01150849
Se       1.83511533       4.54074894      18.38689101        4       0.00000000       0.00000000       0.00000000       0.00000000
Se       1.83511533       4.54074894      15.24344504        5       0.17264063      -0.61346347      -0.42268716       1.63968744
W        3.40805074       5.44890036      16.81516802        3      -0.01674471      -0.02894055      -0.00943917       0.01150800
Se       3.40805074       7.26520321      18.38689101        4       0.00000000       0.00000000       0.00000000       0.00000000
Se       3.40805074       7.26520321      15.24344504        5       0.17264054      -0.61346862      -0.42268660       1.63968670
12
Lattice="3.145899764991676 0.0 0.0 0.0 5.448899730550542 0.0 0.0 0.0 30.98688932628469" Properties=species:S:1:pos:R:3:atom_types:I:1:energies:R:1:forces:R:3 energy=-0.19478252184049885 free_energy=-0.19478252184049885 stress="0.00036702499363247873 5.874288164799252e-16 -1.7792690634694197e-15 5.874288164799252e-16 0.00034163461644527433 -1.8735117093078448e-05 -1.7792690634694197e-15 -1.8735117093078448e-05 0.0011808223366218359" pbc="T T F"
Mo       0.78648218      -0.22704116      11.57172229        0      -0.01396772      -0.00000008      -0.00212936       0.00758512
S        0.78648218       1.58926169      13.14344527        1      -0.03472790      -0.00000000      -0.00054441       0.05405418
S        0.78648218       1.58926169       9.99999931        2       0.00000000       0.00000000       0.00000000       0.00000000
Mo       2.35941759       2.49741311      11.57172229        0      -0.01396775       0.00000008      -0.00212939       0.00758515
S        2.35941759       4.31371596      13.14344527        1      -0.03472789       0.00000000      -0.00054441       0.05405415
S        2.35941759       4.31371596       9.99999931        2       0.00000000       0.00000000       0.00000000       0.00000000
W        0.78648218       1.13518377      19.41516767        3      -0.01397784      -0.00000008       0.00214612      -0.00762285
Se       0.78648218       2.95148662      20.98689065        4       0.00000000       0.00000000       0.00000000       0.00000000
Se       0.78648218       2.95148662      17.84344469        5      -0.03471780      -0.00000000       0.00052768      -0.05401645
W        2.35941759       3.85963804      19.41516767        3      -0.01397781       0.00000008       0.00214609      -0.00762282
Se       2.35941759       5.67594089      20.98689065        4       0.00000000       0.00000000       0.00000000       0.00000000
Se       2.35941759       5.67594089      17.84344469        5      -0.03471781       0.00000000       0.00052768      -0.05401648
12
Lattice="3.145899764991676 0.0 0.0 0.0 5.448899730550542 0.0 0.0 0.0 29.2868891358799" Properties=species:S:1:pos:R:3:atom_types:I:1:energies:R:1:forces:R:3 energy=-0.33403506598016197 free_energy=-0.33403506598016197 stress="0.0010579613058450017 -0.0002487702146794516 -0.0002872076245925759 -0.0002487702146794516 0.00037762192446193297 -0.0010359081668872272 -0.0002872076245925759 -0.0010359081668872272 -0.002239595409081319" pbc="T T F"
Mo      -0.13107203      -1.36222871      11.57172229        0      -0.01483790      -0.00335500      -0.01256224      -0.00594992
S       -0.13107203       0.45407414      13.14344527        1      -0.06867088      -0.04241127      -0.15299894      -0.17550328
S       -0.13107203       0.45407414       9.99999931        2       0.00000000       0.00000000       0.00000000       0.00000000
Mo       1.44186339       1.36222556      11.57172229        0      -0.01483788      -0.00335566      -0.01256203      -0.00594995
S        1.44186339       3.17852841      13.14344527        1      -0.06867088      -0.04241644      -0.15299753      -0.17550359
S        1.44186339       3.17852841       9.99999931        2       0.00000000       0.00000000       0.00000000       0.00000000
W        1.70403638       2.27037101      17.71516779        3      -0.01496644       0.00275331       0.01371075       0.00538067
Se       1.70403638       4.08667385      19.28689077        4       0.00000000       0.00000000       0.00000000       0.00000000
Se       1.70403638       4.08667385      16.14344481        5      -0.06854231       0.04301879       0.15184880       0.17607286
W        3.27697179       4.99482528      17.71516779        3      -0.01496647       0.00275267       0.01371101       0.00538062
Se       3.27697179       6.81112812      19.28689077        4       0.00000000       0.00000000       0.00000000       0.00000000
Se       3.27697179       6.81112812      16.14344481        5      -0.06854231       0.04301360       0.15185016       0.17607259
12
Lattice="3.145899764991676 0.0 0.0 0.0 5.448899730550542 0.0 0.0 0.0 29.98688958438773" Properties=species:S:1:pos:R:3:atom_types:I:1:energies:R:1:forces:R:3 energy=-0.3179026964858317 free_energy=-0.3179026964858317 stress="0.000767763730882303 2.767402937068531e-05 -8.338194526801246e-05 2.767402937068531e-05 0.00073580941466467 0.00014442319679018435 -8.338194526801246e-05 0.00014442319679018435 0.0006492559911683536" pbc="T T F"
Mo      -0.13107203      -0.68111624      11.57172229        0      -0.01438323      -0.00200864       0.00354173      -0.00101837
S       -0.13107203       1.13518660      13.14344527        1      -0.06509230      -0.01052377       0.01816632       0.04698201
S       -0.13107203       1.13518660       9.99999931        2       0.00000000       0.00000000       0.00000000       0.00000000
Mo       1.44186339       2.04333803      11.57172229        0      -0.01438330      -0.00200895       0.00354192      -0.00101823
S        1.44186339       3.85964087      13.14344527        1      -0.06509251      -0.01052471       0.01816621       0.04698337
S        1.44186339       3.85964087       9.99999931        2       0.00000000       0.00000000       0.00000000       0.00000000
W        1.70403638       1.58925854      18.41516793        3      -0.01438330       0.00206298      -0.00351073       0.00101823
Se       1.70403638       3.40556139      19.98689059        4       0.00000000       0.00000000       0.00000000       0.00000000
Se       1.70403638       3.40556139      16.84344494        5      -0.06509251       0.01047068      -0.01819740      -0.04698337
W        3.27697179       4.31371281      18.41516793        3      -0.01438323       0.00206267      -0.00351054       0.00101837
Se       3.27697179       6.13001566      19.98689059        4       0.00000000       0.00000000       0.00000000       0.00000000
Se       3.27697179       6.13001566      16.84344494        5      -0.06509230       0.01046974      -0.01819751      -0.04698201
12
Lattice="3.145899764991676 0.0 0.0 0.0 5.448899730550542 0.0 0.0 0.0 29.386890997609456" Properties=species:S:1:pos:R:3:atom_types:I:1:energies:R:1:forces:R:3 energy=-0.43328352211654436 free_energy=-0.43328352211654436 stress="0.00027180628436594543 1.8331458770246795e-15 -0.00038657230767122504 1.8331458770246795e-15 0.001093587046956453 4.8606132667754666e-14 -0.00038657230767122504 4.8606132667754666e-14 -6.316954641349154e-05" pbc="T T F"
Mo       0.13108650       0.45407131      11.57172229        0      -0.01695802      -0.00738995      -0.00091012      -0.00055464
S        0.13108650       2.27037415      13.14344527        1      -0.09136287      -0.05414535       0.00091018      -0.00401535
S        0.13108650       2.27037415       9.99999931        2       0.00000000       0.00000000       0.00000000       0.00000000
Mo       1.70402191       3.17852558      11.57172229        0      -0.01695800      -0.00738998      -0.00091030      -0.00055465
S        1.70402191       4.99482842      13.14344527        1      -0.09136287      -0.05414539       0.00091024      -0.00401538
S        1.70402191       4.99482842       9.99999931        2       0.00000000       0.00000000       0.00000000       0.00000000
W        1.44187786       0.45407131      17.81516777        3      -0.01695801       0.00738999      -0.00091015       0.00055464
Se       1.44187786       2.27037415      19.38689075        4       0.00000000       0.00000000       0.00000000       0.00000000
Se       1.44187786       2.27037415      16.24344478        5      -0.09136287       0.05414538       0.00091021       0.00401539
W        3.01481327       3.17852558      17.81516777        3      -0.01695801       0.00738995      -0.00091027       0.00055465
Se       3.01481327       4.99482842      19.38689075        4       0.00000000       0.00000000       0.00000000       0.00000000
Se       3.01481327       4.99482842      16.24344478        5      -0.09136287       0.05414536       0.00091021       0.00401534
12
Lattice="3.145899764991676 0.0 0.0 0.0 5.448899730550542 0.0 0.0 0.0 29.2868891358799" Properties=species:S:1:pos:R:3:atom_types:I:1:energies:R:1:forces:R:3 energy=-0.4080644775873691 free_energy=-0.4080644775873691 stress="0.0007681373376913378 0.0004525484401345817 -0.0004950288885039055 0.0004525484401345817 0.0005077984442191762 0.0005183204185121815 -0.0004950288885039055 0.0005183204185121815 -0.0009858353349976774" pbc="T T F"
Mo       0.39324471      -1.81630348      11.57172229        0      -0.01638891      -0.00782647       0.00763759      -0.00267460
S        0.39324471      -0.00000063      13.14344527        1      -0.08562738      -0.07136135       0.07550134      -0.07752710
S        0.39324471      -0.00000063       9.99999931        2       0.00000000       0.00000000       0.00000000       0.00000000
Mo       1.96618012       0.90815079      11.57172229        0      -0.01638874      -0.00782638       0.00763707      -0.00267489
S        1.96618012       2.72445364      13.14344527        1      -0.08562721      -0.07136109       0.07550021      -0.07752843
S        1.96618012       2.72445364       9.99999931        2       0.00000000       0.00000000       0.00000000       0.00000000
W        1.17971965       2.72444609      17.71516779        3      -0.01660466       0.00962492      -0.00726194       0.00168389
Se       1.17971965       4.54074894      19.28689077        4       0.00000000       0.00000000       0.00000000       0.00000000
Se       1.17971965       4.54074894      16.14344481        5      -0.08541129       0.06956254      -0.07587534       0.07851943
W        2.75265506       5.44890036      17.71516779        3      -0.01660481       0.00962499      -0.00726248       0.00168370
Se       2.75265506       7.26520321      19.28689077        4       0.00000000       0.00000000       0.00000000       0.00000000
Se       2.75265506       7.26520321      16.14344481        5      -0.08541148       0.06956283      -0.07587645       0.07851800
12
Lattice="3.145899764991676 0.0 0.0 0.0 5.448899730550542 0.0 0.0 0.0 28.58688868737207" Properties=species:S:1:pos:R:3:atom_types:I:1:energies:R:1:forces:R:3 energy=-0.009726828282779827 free_energy=-0.009726828282779827 stress="-0.0038299306805884563 -2.522116220108877e-13 -4.930987319253988e-13 -2.522116220108877e-13 0.00019819863032192233 0.0009383485864083541 -4.930987319253988e-13 0.0009383485864083541 -0.008173282511549976" pbc="T T F"
Mo       0.78648218      -0.68111624      11.57172229        0      -0.01656519      -0.00000108       0.00937683      -0.01129713
S        0.78648218       1.13518660      13.14344527        1       0.01413402      -0.00002274       0.14142214      -0.85015944
S        0.78648218       1.13518660       9.99999931        2       0.00000000       0.00000000       0.00000000       0.00000000
Mo       2.35941759       2.04333803      11.57172229        0      -0.01656529       0.00000108       0.00937724      -0.01129707
S        2.35941759       3.85964087      13.14344527        1       0.01413305       0.00002274       0.14142481      -0.85015424
S        2.35941759       3.85964087       9.99999931        2       0.00000000       0.00000000       0.00000000       0.00000000
W        0.78648218       1.58925854      17.01516797        3      -0.01872940      -0.00000105      -0.01392597       0.00220615
Se       0.78648218       3.40556139      18.58689095        4       0.00000000       0.00000000       0.00000000       0.00000000
Se       0.78648218       3.40556139      15.44344499        5       0.01629716      -0.00002277      -0.13687609       0.85924516
W        2.35941759       4.31371281      17.01516797        3      -0.01872927       0.00000105      -0.01392557       0.00220639
Se       2.35941759       6.13001566      18.58689095        4       0.00000000       0.00000000       0.00000000       0.00000000
Se       2.35941759       6.13001566      15.44344499        5       0.01629809       0.00002277      -0.13687340       0.85925017
12
Lattice="3.145899764991676 0.0 0.0 0.0 5.448899730550542 0.0 0.0 0.0 29.2868891358799" Properties=species:S:1:pos:R:3:atom_types:I:1:energies:R:1:forces:R:3 energy=-0.44585913458401527 free_energy=-0.44585913458401527 stress="0.0009074468512046203 0.0002297790550926795 1.9503365811297164e-05 0.0002297790550926795 0.0003122415848475417 -0.000466424649063867 1.9503365811297164e-05 -0.000466424649063867 -0.00035852819071649337" pbc="T T F"
Mo      -0.65538844      -0.22704116      11.57172229        0      -0.01747585      -0.00062954      -0.00898953      -0.00060978
S       -0.65538844       1.58926169      13.14344527        1      -0.09398871       0.00426877      -0.06457012      -0.02977762
S       -0.65538844       1.58926169       9.99999931        2       0.00000000       0.00000000       0.00000000       0.00000000
Mo       0.91754697       2.49741311      11.57172229        0      -0.01747604      -0.00062890      -0.00898985      -0.00060947
S        0.91754697       4.31371596      13.14344527        1      -0.09398896       0.00427038      -0.06457132      -0.02977579
S        0.91754697       4.31371596       9.99999931        2       0.00000000       0.00000000       0.00000000       0.00000000
W        2.22835280       1.13518377      17.71516779        3      -0.01790165       0.00134243       0.01000498      -0.00135012
Se       2.22835280       2.95148662      19.28689077        4       0.00000000       0.00000000       0.00000000       0.00000000
Se       2.22835280       2.95148662      16.14344481        5      -0.09356335      -0.00498391       0.06355619       0.03173539
W        3.80128821       3.85963804      17.71516779        3      -0.01790146       0.00134309       0.01000467      -0.00134980
Se       3.80128821       5.67594089      19.28689077        4       0.00000000       0.00000000       0.00000000       0.00000000
Se       3.80128821       5.67594089      16.14344481        5      -0.09356311      -0.00498232       0.06355499       0.03173721
12
Lattice="3.145899764991676 0.0 0.0 0.0 5.448899730550542 0.0 0.0 0.0 30.98688932628469" Properties=species:S:1:pos:R:3:atom_types:I:1:energies:R:1:forces:R:3 energy=-0.1890156013319263 free_energy=-0.1890156013319263 stress="0.00039443328825574455 -7.392964387494113e-06 1.1401335084159338e-05 -7.392964387494113e-06 0.00038589754261369205 1.9747868416269545e-05 1.1401335084159338e-05 1.9747868416269545e-05 0.0010857499259025166" pbc="T T F"
Mo       0.13108650      -0.68111624      11.57172229        0      -0.01295220       0.00080769       0.00140097       0.00586850
S        0.13108650       1.13518660      13.14344527        1      -0.03430171       0.00053497       0.00092447       0.05155927
S        0.13108650       1.13518660       9.99999931        2       0.00000000       0.00000000       0.00000000       0.00000000
Mo       1.70402191       2.04333803      11.57172229        0      -0.01295220       0.00080759       0.00140101       0.00586849
S        1.70402191       3.85964087      13.14344527        1      -0.03430170       0.00053492       0.00092447       0.05155923
S        1.70402191       3.85964087       9.99999931        2       0.00000000       0.00000000       0.00000000       0.00000000
W        1.44187786       1.58925854      19.41516767        3      -0.01295220      -0.00080939      -0.00139997      -0.00586849
Se       1.44187786       3.40556139      20.98689065        4       0.00000000       0.00000000       0.00000000       0.00000000
Se       1.44187786       3.40556139      17.84344469        5      -0.03430170      -0.00053311      -0.00092551      -0.05155923
W        3.01481327       4.31371281      19.41516767        3      -0.01295220      -0.00080949      -0.00139993      -0.00586850
Se       3.01481327       6.13001566      20.98689065        4       0.00000000       0.00000000       0.00000000       0.00000000
Se       3.01481327       6.13001566      17.84344469        5      -0.03430171      -0.00053317      -0.00092551      -0.05155927
12
Lattice="3.145899764991676 0.0 0.0 0.0 5.448899730550542 0.0 0.0 0.0 29.68689029099859" Properties=species:S:1:pos:R:3:atom_types:I:1:energies:R:1:forces:R:3 energy=-0.41528151682946113 free_energy=-0.41528151682946113 stress="0.0007300991811491004 -0.00014728838123402252 -0.00013992990933508733 -0.00014728838123402252 0.0006827669159940682 -8.646217840544771e-05 -0.00013992990933508733 -8.646217840544771e-05 0.0011227103739627972" pbc="T T F"
Mo      -0.52430950      -1.36222871      11.57172229        0      -0.01749970      -0.00595179      -0.00253725       0.00297187
S       -0.52430950       0.45407414      13.14344527        1      -0.08632053      -0.01658729      -0.01143439       0.07866253
S       -0.52430950       0.45407414       9.99999931        2       0.00000000       0.00000000       0.00000000       0.00000000
Mo       1.04862591       1.36222556      11.57172229        0      -0.01749976      -0.00595156      -0.00253711       0.00297199
S        1.04862591       3.17852841      13.14344527        1      -0.08632076      -0.01658673      -0.01143357       0.07866368
S        1.04862591       3.17852841       9.99999931        2       0.00000000       0.00000000       0.00000000       0.00000000
W        2.09727385       2.27037101      18.11516769        3      -0.01733225       0.00546158       0.00258633      -0.00218512
Se       2.09727385       4.08667385      19.68689067        4       0.00000000       0.00000000       0.00000000       0.00000000
Se       2.09727385       4.08667385      16.54344502        5      -0.08648828       0.01707672       0.01138435      -0.07945056
W        3.67020926       4.99482528      18.11516769        3      -0.01733219       0.00546180       0.00258648      -0.00218499
Se       3.67020926       6.81112812      19.68689067        4       0.00000000       0.00000000       0.00000000       0.00000000
Se       3.67020926       6.81112812      16.54344502        5      -0.08648804       0.01707728       0.01138516      -0.07944940
12
Lattice="3.145899764991676 0.0 0.0 0.0 5.448899730550542 0.0 0.0 0.0 28.386891255712495" Properties=species:S:1:pos:R:3:atom_types:I:1:energies:R:1:forces:R:3 energy=0.578494735669818 free_energy=0.578494735669818 stress="-0.008822395959848092 -8.738595813362339e-13 -1.2792856993806649e-18 -8.738595813362339e-13 0.0008320224291980709 -2.172312691623154e-11 -1.2792856993806649e-18 -2.172312691623154e-11 -0.014011005129555347" pbc="T T F"
Mo       0.78648218      -0.90815363      11.57172229        0      -0.01423915      -0.00000130      -0.00944389      -0.02139830
S        0.78648218       0.90814922      13.14344527        1       0.15886283      -0.00004727       0.00943938      -1.56984409
S        0.78648218       0.90814922       9.99999931        2       0.00000000       0.00000000       0.00000000       0.00000000
Mo       2.35941759       1.81630064      11.57172229        0      -0.01423912       0.00000130      -0.00944328      -0.02139847
S        2.35941759       3.63260349      13.14344527        1       0.15886280       0.00004727       0.00944779      -1.56984392
S        2.35941759       3.63260349       9.99999931        2       0.00000000       0.00000000       0.00000000       0.00000000
W        0.78648218       1.81629624      16.81516802        3      -0.01423915      -0.00000130      -0.00944389       0.02139830
Se       0.78648218       3.63259909      18.38689101        4       0.00000000       0.00000000       0.00000000       0.00000000
Se       0.78648218       3.63259909      15.24344504        5       0.15886283      -0.00004727       0.00943939       1.56984409
W        2.35941759       4.54075051      16.81516802        3      -0.01423912       0.00000130      -0.00944328       0.02139847
Se       2.35941759       6.35705336      18.38689101        4       0.00000000       0.00000000       0.00000000       0.00000000
Se       2.35941759       6.35705336      15.24344504        5       0.15886280       0.00004727       0.00944780       1.56984392
12
Lattice="3.145899764991676 0.0 0.0 0.0 5.448899730550542 0.0 0.0 0.0 29.086888558320553" Properties=species:S:1:pos:R:3:atom_types:I:1:energies:R:1:forces:R:3 energy=-0.406834862555193 free_energy=-0.406834862555193 stress="0.0008790612722778117 4.922157382501302e-14 -9.632754083550356e-14 4.922157382501302e-14 -0.00014789507176991945 -0.0009030679508702976 -9.632754083550356e-14 -0.0009030679508702976 -0.0019123418574836563" pbc="T T F"
Mo       0.78648218      -0.22704116      11.57172229        0      -0.01733725      -0.00000043      -0.01259219      -0.00242044
S        0.78648218       1.58926169      13.14344527        1      -0.08437135      -0.00000128      -0.13104242      -0.16699076
S        0.78648218       1.58926169       9.99999931        2       0.00000000       0.00000000       0.00000000       0.00000000
Mo       2.35941759       2.49741311      11.57172229        0      -0.01733735       0.00000043      -0.01259234      -0.00242029
S        2.35941759       4.31371596      13.14344527        1      -0.08437149       0.00000128      -0.13104292      -0.16698955
S        2.35941759       4.31371596       9.99999931        2       0.00000000       0.00000000       0.00000000       0.00000000
W        0.78648218       1.13518377      17.51516784        3      -0.01807504      -0.00000044       0.01395567      -0.00089598
Se       0.78648218       2.95148662      19.08689082        4       0.00000000       0.00000000       0.00000000       0.00000000
Se       0.78648218       2.95148662      15.94344486        5      -0.08363380      -0.00000127       0.12967959       0.17030581
W        2.35941759       3.85963804      17.51516784        3      -0.01807494       0.00000044       0.01395550      -0.00089582
Se       2.35941759       5.67594089      19.08689082        4       0.00000000       0.00000000       0.00000000       0.00000000
Se       2.35941759       5.67594089      15.94344486        5      -0.08363366       0.00000127       0.12967910       0.17030702
12
Lattice="3.145899764991676 0.0 0.0 0.0 5.448899730550542 0.0 0.0 0.0 33.486888681027104" Properties=species:S:1:pos:R:3:atom_types:I:1:energies:R:1:forces:R:3 energy=-0.0411429332644265 free_energy=-0.0411429332644265 stress="7.902878251767963e-05 -4.789732511095831e-07 6.622681120240645e-07 -4.789732511095831e-07 7.84761111932228e-05 1.14708025358294e-06 6.622681120240645e-07 1.14708025358294e-06 0.00040654191759916187" pbc="T T F"
Mo      -0.65538844      -2.04334117      11.57172229        0      -0.00448185       0.00007028       0.00012202       0.00596077
S       -0.65538844      -0.22703833      13.14344527        1      -0.00580388      -0.00000906      -0.00001598       0.00764266
S       -0.65538844      -0.22703833       9.99999931        2       0.00000000       0.00000000       0.00000000       0.00000000
Mo       0.91754697       0.68111310      11.57172229        0      -0.00448185       0.00007029       0.00012202       0.00596077
S        0.91754697       2.49741594      13.14344527        1      -0.00580388      -0.00000906      -0.00001598       0.00764266
S        0.91754697       2.49741594       9.99999931        2       0.00000000       0.00000000       0.00000000       0.00000000
W        2.22835280       2.95148347      21.91516765        3      -0.00448185      -0.00007053      -0.00012188      -0.00596077
Se       2.22835280       4.76778632      23.48689063        4       0.00000000       0.00000000       0.00000000       0.00000000
Se       2.22835280       4.76778632      20.34344467        5      -0.00580388       0.00000931       0.00001583      -0.00764266
W        3.80128821       5.67593774      21.91516765        3      -0.00448185      -0.00007053      -0.00012188      -0.00596077