27
Lattice="9.640630816720485 0.0 0.0 -4.559912329369805 8.688878820601388 0.0 0.0 0.0 100.0" Properties=species:S:1:pos:R:3:atom_types:I:1:energies:R:1:forces:R:3 energy=-25.368808684237234 free_energy=-25.368808684237234 stress="0.0019209317846537793 0.0010096379866356671 -0.0001431939389404966 0.0010096379866356671 0.0033311579028221495 0.0002876130354611703 -0.0001431939389404966 0.0002876130354611703 0.002828174516159507" pbc="T T T"
Mo       0.87792983       0.36176853       9.89125733        0       0.94736200      -1.57124565       2.27681445       3.79928038
S        0.90432202       2.58577626      11.58672904        1       0.94024890       0.51992155      -0.59297077      -1.70426365
S        0.84328429       2.34844224       8.43259711        2       1.10961729       0.51615125       0.63269303       1.06416999
Mo      -0.76397757       3.51218111      10.03472631        0       0.76252029      -0.37024807      -2.12158858       0.88242886
S       -0.73962727       5.22179177      11.81491024        1       0.75077608       0.24979855       0.92503641      -2.64470478
S       -0.68482414       5.28106526       8.58126142        2       2.24085830       0.85215807       0.86872216      -1.33172590
Mo      -2.29104867       6.25981198       9.96578230        0       0.83830329       0.13293984      -0.14374454       3.12476040
S       -2.22634847       8.19842040      11.54931761        1       2.00653483       0.64158903      -0.62873935      -0.54747639
S       -2.24629879       8.09205340       8.38781252        2       1.13806140       1.57026392      -0.14734116       0.06080461
Mo       4.12970207       0.40627836      10.12392914        0       0.43512076      -2.96872466       0.74388954      -4.51246114
S        4.01893122       2.22735592      11.58254790        1       1.86088273       1.11266156       0.07868093       1.13650292
S        4.10029622       2.39084463       8.29267300        2       1.37776284       0.46755127      -1.35132873       1.15855412
Mo       2.82813497       3.34669968       9.98877328        0       0.67353362      -5.14944066       1.75265637      -0.20404532
S        2.53391255       5.53083568      11.58065159        1       1.33240486       1.75746193      -1.25775874       0.09681470
S        2.56811269       5.29652786       8.45674111        2       1.37008593       0.58567149       0.18394058       0.74902049
Mo       1.03260507       6.25769683      10.08345488        0       0.29679646      -2.45533716       1.39947082      -0.41605426
S        0.88985047       8.31371174      11.72745912        1       1.04691035       2.22394140      -1.53902560      -0.97425384
S        1.09310100       8.32710933       8.18509030        2       0.72530188      -0.26114933      -0.95497669       1.87969543
Mo       7.11379738       0.51795350       9.85250682        0      -0.01396894      -0.04660454       1.04371042       4.46341350
S        7.31846990       2.53063088      11.68594367        1       1.27369772      -0.54337095      -0.63670977      -2.36751835
S        7.06526451       2.44832978       8.32670828        2       0.81140797       1.20892121       0.22881268       1.48096886
Mo       5.51885624       3.30747195      10.00084817        0       0.88206640       2.47953812       0.84573255       0.47158856
S        5.72442534       5.22847176      11.63299443        1       1.71117606      -0.26398481       0.42198339      -1.77854747
S        5.81204517       5.27636449       8.43838631        2       1.41117003      -0.86937119       0.10343869       0.43157813
Mo       4.20243677       6.47006064       9.99517851        0       0.96621785      -0.14077823      -2.80339150       1.70578215
S        4.34211313       8.18133239      11.67206887        1       1.38153488      -0.27382775       0.88166982      -1.93989396
S        4.19839639       8.25942053       8.56674938        2       1.75157144       0.59551380      -0.20967639      -4.08441804
27
Lattice="9.594547948708225 0.0 0.0 -4.893660803046836 8.498745032938311 0.0 0.0 0.0 100.0" Properties=species:S:1:pos:R:3:atom_types:I:1:energies:R:1:forces:R:3 energy=-28.643243156331064 free_energy=-28.643243156331064 stress="0.0006656150537558925 -0.0001151503518084822 0.0009023835785204253 -0.0001151503518084822 0.0031844986461612265 -0.00021005257006396656 0.0009023835785204253 -0.00021005257006396656 -0.0008708958868951329" pbc="T T T"
Mo       0.66169663       0.30595670       9.92271315        0       1.22096217      -0.34134182       2.60145038       0.88935390
S        0.61002424       2.32843272      11.67119095        1       1.63777496       0.39063455      -0.65462192      -1.97279927
S        0.59690369       2.37410661       8.40636585        2       2.68032570       0.47697248      -1.36071563       0.05926117
Mo      -0.92282665       3.17741301       9.97898326        0       2.09989308       0.44916863       2.19001042      -0.08976297
S       -0.98569780       5.15067572      11.56685504        1       1.92382580       0.70503960      -0.15154118      -0.21731157
S       -0.87230368       5.18864422       8.58348312        2       2.62041064      -0.83639610      -0.20456110      -1.42674390
Mo      -2.54556981       6.15063485      10.05323258        0       1.16915458       0.14469137       1.08032294      -0.31565388
S       -2.79280788       8.19278641      11.61912997        1       1.98290484       1.95457324      -1.00339865      -1.05188784
S       -2.48958850       8.01877393       8.38798653        2       1.63295062       0.02375315      -0.32390729       1.14296517
Mo       4.04736507       0.52401679       9.97706051        0       0.96724344      -3.36001435       0.79894163       2.53626243
S        3.90632905       2.39544392      11.65307644        1       2.58706180      -0.77427105      -0.87188287      -0.64859060
S        3.86870595       2.51541511       8.38894982        2       1.86795215       0.04129378      -1.03705120       0.90692622
Mo       2.19905984       3.15154899       9.98448189        0       1.14600613       0.50554876       1.14087115       0.40242538
S        2.32489329       5.14900626      11.36911428        1       2.93781276      -1.52642283      -1.08095231       4.11505779
S        2.10904762       5.18685580       8.48511406        2       2.18848264       0.75031624      -0.68669277      -1.13139914
Mo       0.68457771       6.17616115      10.01918057        0       2.16849159      -1.36881453      -0.52319889       1.44976830
S        0.62833543       7.97961666      11.59033002        1       2.50385374       0.09868894       0.25046671       0.22123773
S        0.48578060       8.01822513       8.54896002        2       2.54252479       2.17906569      -0.42546327      -2.56340363
Mo       7.09530733       0.39764508      10.03388422        0       1.14996960      -0.20939406       1.20131199      -0.40857291
S        7.33696809       2.46558582      11.52414203        1       2.69444751      -2.61293997      -1.80038336       1.71364588
S        6.81585653       2.34579981       8.53457107        2       2.63674918       1.54916864      -0.58684220      -0.69033098
Mo       5.42575812       3.23899658      10.11444772        0       1.80827734       0.81078234       1.69313584      -1.36377999
S        5.48054683       5.17087704      11.51358898        1       2.34669723      -0.76257918      -0.07886324       1.57074502
S        5.45250196       5.22033021       8.53699562        2       2.21099206       0.04675113      -1.02489678      -0.60684761
Mo       3.76036431       5.99709042      10.00794632        0       1.46660716       1.91961871       3.05840868      -2.26506113
S        3.72626337       7.96948482      11.58863850        1       1.97585003       0.55020696      -0.70943585      -1.08464232
S        3.81056491       8.14922716       8.32880832        2       1.92718443      -0.80410032      -1.49051122       0.82913874
27
Lattice="9.508130135520842 0.0 0.0 -4.701437567460313 8.183761705204414 0.0 0.0 0.0 100.0" Properties=species:S:1:pos:R:3:atom_types:I:1:energies:R:1:forces:R:3 energy=-27.010186631528633 free_energy=-27.010186631528633 stress="-0.0005127171024490462 0.00027797240941908254 -0.0009318605890845614 0.00027797240941908254 0.0015287252088521989 -0.0009225939608701145 -0.0009318605890845614 -0.0009225939608701145 -0.00041769647159779376" pbc="T T T"
Mo       0.72456135       0.29837939      10.15646671        0       1.81875367       1.87848456       1.52755050      -0.18147140
S        0.93202115       2.26371369      11.57129549        1       2.46038597      -1.92632175      -0.40816547      -0.16985258
S        0.90521202       2.19278209       8.56219955        2       2.93148914      -1.14765647      -1.98445505      -3.72255281
Mo      -0.76178568       3.07220616       9.81539677        0       1.34652397       0.89370694       2.80958603       5.40397398
S       -0.72976515       5.00140386      11.60517296        1       1.90061256      -0.78802303      -0.65776882      -2.04642054
S       -0.73291044       5.03081821       8.30282822        2       1.82109859       0.15720903      -0.54323096       0.80630855
Mo      -2.38040602       5.90064287       9.89807472        0       1.08114596       1.57577678       0.05663662       3.24607305
S       -2.31828275       7.67357541      11.64170795        1       2.26122789       0.69517596      -0.29177056      -1.23201750
S       -2.17917025       7.88538422       8.53388909        2       2.56731865      -2.29602879      -1.33243807      -2.57468317
Mo       4.10141561       0.39051317       9.87832063        0       2.42963009      -2.57461245       2.85307406       5.07868356
S        3.86734826       2.29767578      11.55917358        1       2.27673685       0.90223211      -0.55147568      -1.50215744
S        3.95023919       2.34595046       8.42074424        2       2.53409649       0.35811001      -0.79528033      -0.71777661
Mo       2.29157156       3.18078425       9.93455076        0       2.25711923       2.86764815       0.81221040       2.39776567
S        2.10823389       4.85015233      11.72430127        1       2.56529999       2.87376345      -0.47634258      -0.24343019
S        2.55144207       5.10076192       8.27569867        2       2.89036671      -0.65163598      -1.37441996      -0.67894643
Mo       0.97247919       5.54792643       9.99436070        0       1.57578244      -3.60057798       4.47976380      -1.39354778
S        0.81385886       7.73005560      11.45351543        1       2.71151792       1.18860258      -1.31747750       0.17411986
S        0.78141617       7.74638392       8.42391901        2       1.81144758       2.32611391      -1.73171380      -1.01286755
Mo       7.22722194       0.40418681       9.99682996        0       1.27434922      -2.13907169       1.66844660       0.94042999
S        7.23715224       2.39345783      11.62489852        1       2.27151900      -0.19515827      -1.14384736      -1.78394494
S        7.20526102       2.37359534       8.36803022        2       2.22069240      -0.61308055      -2.39060160      -1.32372696
Mo       5.62576759       3.08902794       9.93370548        0       1.21698652      -1.01704796       1.98263020       2.22656328
S        5.53200696       4.97112237      11.63426023        1       2.09977435       0.05650150      -0.15528618      -2.50257231
S        5.59893184       5.04405828       8.39480416        2       1.68228368      -0.18117892      -0.89638990      -1.02106171
Mo       3.95154466       5.81735261       9.85119013        0       1.33466931       0.54851177      -0.50741875       5.76405604
S        3.89533069       7.55971935      11.60648033        1       2.60315739       0.20693672      -0.35958362       0.17930488
S        4.04134799       7.66320109       8.61138035        2       2.73475981       0.60162038       0.72776798      -4.11024895
27
Lattice="10.599705239013943 0.0 0.0 -4.61920314728893 8.238472501150241 0.0 0.0 0.0 100.0" Properties=species:S:1:pos:R:3:atom_types:I:1:energies:R:1:forces:R:3 energy=-23.02621374529405 free_energy=-23.02621374529405 stress="0.003920545801545654 0.0010977831777455596 0.00036077067096820537 0.0010977831777455596 0.00033523559490719157 0.0010043913992095958 0.00036077067096820537 0.0010043913992095958 -0.0012224926149969363" pbc="T T T"
Mo       0.93773154       0.57726843       9.93171499        0       0.38338605      -0.81134825      -2.16464554       2.19376584
S        1.08869043       2.46186528      11.47441517        1       1.36469158       0.94340677      -0.16577012      -1.28539654
S        1.06718256       2.14506977       8.23531485        2       0.94900022       0.54014410       1.43479021       0.29744946
Mo      -0.45879976       3.21610533       9.83122343        0       0.76471539      -1.73367668      -0.11662742       0.42377501
S       -0.41322633       5.04637975      11.41527518        1       1.32235551      -0.39341084       0.40416455      -0.87543861
S       -0.53816611       5.14360130       8.45660278        2       1.77856811       1.85043005      -0.62690989      -3.62848440
Mo      -2.28677723       5.92172885       9.65753136        0       1.75473180       0.89462596      -0.75547404       9.56924882
S       -1.85909608       7.88361663      11.52466308        1       1.11817093      -0.27627305      -0.19109052      -1.98169979
S       -2.10247379       7.74970313       8.53788555        2       1.69569862       1.19706258       2.40283413      -3.59250769
Mo       4.58722384       0.52359470       9.90504084        0       0.92095017      -0.54989873      -2.77668540       1.40627037
S        4.71864852       2.17953471      11.44076429        1       1.17356784      -0.19612041       2.32835118      -0.93152904
S        4.83328751       2.17829455       8.32270306        2       1.23813299      -0.61912658       1.81662739      -1.23142126
Mo       3.06811224       3.22054766       9.72713008        0      -0.13771021      -0.42048384      -1.28181371       3.51745886
S        3.27486691       5.17899796      11.53579913        1       1.36053210      -0.41972029      -0.89934014      -1.78096244
S        3.18368931       5.08566968       8.42053304        2       1.68682902      -0.69725345       0.43079737      -3.15180069
Mo       1.42150209       5.95680115       9.92954524        0       0.24406132       0.19614026       0.66125966       1.95817238
S        1.57921510       7.93704338      11.76468598        1       0.70420056       0.19430292      -0.64719257      -2.66778461
S        1.55841000       7.79348840       8.37268703        2       1.67253794       0.76190745      -0.08830190       0.98632470
Mo       8.03816775       0.30142488      10.04188303        0       0.50441684      -2.14812925       1.34928354      -2.26180402
S        8.22682343       2.38889691      11.30447752        1       1.30044020       0.01473753       0.38271067       0.07090924
S        8.07491481       2.31355420       8.38331323        2       1.38706616       1.47212464      -0.48347660      -0.64933327
Mo       6.53272766       3.42927918       9.70543991        0       1.59333430      -0.55464483      -4.91085422       6.07638560
S        6.63882222       5.13133215      11.20365312        1       3.77929813       0.21690360       0.29615451       2.47504848
S        6.57996312       5.09019999       8.45149902        2       2.40474429      -0.74316749       1.91871915      -8.97570109
Mo       4.90660144       5.88735506       9.79042198        0       2.05650081      -0.31989266       1.35215683       4.05242515
S        4.95946429       7.72630322      11.49525526        1       1.53637127       1.56905507      -0.42565413      -0.23434065
S        5.08748435       7.76293687       8.38680160        2       1.42253568       0.03230541       0.75598701       0.22097019
27
Lattice="10.00078776637149 0.0 0.0 -5.0961614268365185 8.049964099148703 0.0 0.0 0.0 100.0" Properties=species:S:1:pos:R:3:atom_types:I:1:energies:R:1:forces:R:3 energy=-25.573693041997313 free_energy=-25.573693041997313 stress="0.0023243365571607136 -0.0001731927382663965 0.00021769559986222346 -0.0001731927382663965 -0.0005680885396008049 -0.0004210294250737763 0.00021769559986222346 -0.0004210294250737763 -0.0035994575452127676" pbc="T T T"
Mo       0.82229677       0.33352427      10.07779283        0       2.15999902      -0.64943929       1.71332822      -2.67783414
S        0.59526389       2.34062537      11.43695089        1       3.31707136       2.50456271      -1.35119155       5.09643985
S        0.74587975       2.27204897       8.53285514        2       3.16907790      -0.55989294      -0.64887948      -0.35076014
Mo      -0.90242408       3.13130565      10.14355301        0       2.84983219      -2.65633917      -1.32500503      -4.16732197
S       -1.06312374       4.87678015      11.62857999        1       2.27844615      -0.23393327       0.62438994       0.39091952
S       -0.87885423       4.81272610       8.64298481        2       4.56309527      -1.69720368      -0.72018841      -5.53389833
Mo      -2.49896484       5.92688186       9.90550126        0       1.03789586      -2.15932733      -2.37054861       1.88853730
S       -2.76442976       7.50128688      11.56279781        1       2.45757649       1.67713063       1.15314715       0.59581791
S       -2.65522915       7.74166181       8.36034355        2       1.83818601       0.85929554       0.21191737       0.99444334
Mo       4.28560558       0.53908646      10.05056269        0       1.47549503      -2.25761251      -4.05755445      -0.13827476
S        3.94126045       2.27460217      11.47109558        1       2.83107956       0.91653167       0.42575570       3.24557159
S        4.04360152       2.12084306       8.59280786        2       2.36400668       0.54311229       2.44069675      -2.46948975
Mo       2.33278475       3.13535497      10.00829836        0       2.71972750       0.44026337      -0.82521598      -0.10178211
S        2.50095200       4.95678345      11.48583274        1       3.53686319      -3.44824307      -1.14236145       4.38855213
S        2.29190553       4.84754784       8.58186400        2       3.35801850      -0.31335057       0.72771482      -2.69896570
Mo       0.48864649       5.58866822       9.98972690        0       2.27725090       4.09588546       3.85257942       2.91276536
S        0.72325797       7.36508315      11.56717015        1       2.86695931       0.45019512       1.08495721      -0.34976712
S        0.60318451       7.59943561       8.33608264        2       1.55514614       0.53734353      -0.72081455       1.45642729
Mo       7.52707891       0.30829828       9.95300600        0       1.12474256      -2.08409441       1.78379147       2.34369199
S        7.52456771       2.11032923      11.62418864        1       2.10991524      -0.68517256      -0.02148121      -0.43865389
S        7.45206800       2.27519922       8.38982187        2       1.80229463       0.11272547      -0.08534417       2.06874495
Mo       5.78147041       3.16421025      10.09700935        0       0.62304017       0.10625151      -0.72407059      -2.16635093
S        5.69728878       4.88718197      11.66391677        1       1.28662158      -0.05740078       1.18570341      -1.24963988
S        5.59019534       4.98464964       8.35131784        2       1.17569308       0.18172004       0.03667334       2.37437422
Mo       3.81016713       5.79342035      10.12212632        0       2.48269567       5.36688590      -0.33511308      -4.36436281
S        4.16876338       7.57990307      11.52414176        1       2.64482705      -1.75579221       0.20513398       2.96625128
S        4.01783649       7.60158578       8.64043161        2       3.39369957       0.76589857      -1.11802020      -4.01543523
27
Lattice="8.885371642110435 0.0 0.0 -4.8241437110226615 8.598649584591174 0.0 0.0 0.0 100.0" Properties=species:S:1:pos:R:3:atom_types:I:1:energies:R:1:forces:R:3 energy=-27.768450956689477 free_energy=-27.768450956689477 stress="-0.00248131433728289 -0.0011479682007860823 -1.704465841406177e-05 -0.0011479682007860823 0.0029829295909101156 -0.00032167749738286767 -1.704465841406177e-05 -0.00032167749738286767 0.0034678553684414524" pbc="T T T"
Mo       0.73268153       0.37531454      10.01899401        0       1.50989386      -0.28896047       1.72532123      -1.80679845
S        0.54727136       2.43272146      11.45022657        1       1.73785437      -0.48366713      -0.35317640       2.20719835
S        0.58617508       2.44519563       8.55153579        2       2.06779511       0.43263637      -0.09208380      -0.54663056
Mo      -0.97468440       3.53997293       9.98134403        0       1.01585012      -0.13455272       0.47701791       0.41053474
S       -0.92892918       5.37269279      11.77264650        1       1.84558094      -1.08840839      -0.38964615      -2.60528502
S       -1.06249319       5.49964432       8.33220306        2       2.33992574      -1.13530533      -2.05900802      -0.32650464
Mo      -2.64061605       6.28690957       9.95225510        0       1.59306678       2.91994866       1.04364106       1.14253174
S       -2.55351187       8.13674176      11.53588245        1       2.71559890      -0.05008011      -0.50690096      -0.20794091
S       -2.57279845       8.11977959       8.29428118        2       2.37107890      -0.87085016      -0.34662246       0.95192822
Mo       3.60329542       0.57695295       9.87209749        0       1.59234960       1.76186935      -0.29878177       1.26066589
S        3.59993942       2.30367654      11.62325941        1       1.88347764       0.06546094       0.66728328      -1.19580483
S        3.43323652       2.43472511       8.37018091        2       2.44352081       0.16915398       0.50386193       0.62373169
Mo       2.05822615       3.52480205      10.15065656        0       1.45008910       0.91566289      -1.50799490      -4.27111883
S        1.88198391       5.21664434      11.62241975        1       3.13632481       0.32383072       1.06850601      -0.14790124
S        1.99111405       5.42726941       8.29039383        2       1.95410480      -0.06093621      -2.09767509       0.15808486
Mo       0.45454718       6.10582925       9.81134377        0       1.42165612       0.52290874       3.80095256       3.71256502
S        0.39352067       8.22333593      11.51916995        1       1.52724612      -0.53203317      -0.83376375      -1.83639788
S        0.36198560       8.08044583       8.25658055        2       1.38552500      -0.05577140       0.32696506       1.29741718
Mo       6.65922441       0.58985184       9.87481731        0       0.47775802       0.34042289       0.57776451       0.34958192
S        6.42086810       2.51052799      11.66519037        1       1.80199828       0.76103442      -0.88930528      -2.12695069
S        6.56591646       2.55401656       8.22735478        2       1.67403978       0.04849500      -0.96225807       1.42904883
Mo       5.05226941       3.40007276       9.88411141        0       1.13309816      -1.43523137       0.77506568       1.67772598
S        4.92921767       5.31145659      11.66578836        1       2.41423092      -0.54863179      -0.99609381      -1.89512939
S        4.91244831       5.27836924       8.37745803        2       2.36528274      -0.37485988      -0.68860887      -0.30637644
Mo       3.41172948       6.18289919       9.92751200        0       1.37348195      -0.18528598       1.71759573       2.12532206
S        3.30147179       8.16589022      11.62069421        1       1.79297323      -0.62732780      -0.91843736      -1.60242488
S        3.38441229       8.02363898       8.28260402        2       1.84011720      -0.38952203       0.25638173       1.52892728
27
Lattice="9.325052284278392 0.0 0.0 -4.760970719104323 8.49027360378979 0.0 0.0 0.0 100.0" Properties=species:S:1:pos:R:3:atom_types:I:1:energies:R:1:forces:R:3 energy=-26.731633385538615 free_energy=-26.731633385538615 stress="-0.0005695090129785562 0.00023335851364544334 0.0004580966704020175 0.00023335851364544334 0.002057155084560756 0.00027359653011921684 0.0004580966704020175 0.00027359653011921684 -0.0005888136800305773" pbc="T T T"
Mo       0.86075828       0.52284076      10.06673617        0       1.69982061      -2.66061243      -1.37473265      -0.93259999
S        0.56106415       2.25725013      11.49403054        1       3.33002800       0.78404406       1.36094913       0.26486167
S        0.89522367       2.23671170       8.28163395        2       1.68975825      -1.03466634       0.08694802       0.56864810
Mo      -0.81058670       3.23090122       9.77406101        0       1.82883036       0.81604979      -0.40629356       5.93482021
S       -0.80706276       5.14192149      11.51104223        1       3.06407702      -0.70006749      -1.39168495       0.95600218
S       -0.94858535       5.04090879       8.48407338        2       2.29928621      -1.12513047       1.68416033      -2.37565890
Mo      -2.46280226       6.15655618      10.19205089        0       0.66190477      -0.44058741      -0.10012003      -3.65634890
S       -2.40148911       8.04254987      11.69559994        1       1.31086718       0.06494672      -0.06795636       0.31739773
S       -2.48719660       8.13605310       8.55093960        2       3.37773981       1.25812032      -1.79520971       0.08785615
Mo       3.96402471       0.36765790      10.11382302        0       1.75676260      -1.87074321       0.95911541      -4.40043078
S        3.95688452       2.18016552      11.57021155        1       2.05821736      -0.85633065       0.89329814      -0.21234361
S        3.85465677       2.30920652       8.25804157        2       1.50299399       0.11307109      -0.25236507       2.49736369
Mo       2.19785235       3.26037025       9.94555152        0       0.95249919       1.77414962      -1.19659158       2.20657347
S        2.39360851       5.01390717      11.74195850        1       2.23240442      -1.53834429      -0.20339063      -1.76831321
S        2.14477322       5.08058968       8.54168355        2       2.49769923       0.44538577       0.08914790      -1.77430954
Mo       0.57539489       5.96278999       9.96218835        0       2.56655507       2.47533690      -0.00844350       3.88805424
S        0.62228778       7.94707532      11.43507569        1       3.04730432       1.90897953      -1.19336036       2.97688165
S        0.73676119       7.66633530       8.57948731        2       2.78951486      -1.35388407       2.15368870      -3.67914052
Mo       7.05043984       0.35422144       9.92207757        0       1.62710501      -1.69381427       1.30668178       4.45825581
S        6.97063418       2.43403167      11.63037306        1       1.57903977       0.96597326      -1.18310037      -1.73987806
S        6.93256465       2.30514826       8.53628714        2       3.16042641      -0.19361011      -1.23312298      -4.59368427
Mo       5.46548868       3.14248760       9.99584992        0       1.32589650      -2.10602363       2.29759361       0.46329963
S        5.40453454       5.00873270      11.66001740        1       1.85325649      -0.25003185      -0.20434674      -0.66158277
S        5.11193958       5.33211059       8.41261270        2       1.89587127       2.70838332      -1.47563084       0.63257878
Mo       3.77091780       5.91479394      10.06373257        0       1.49310989      -1.16504733       3.07247170       1.84646267
S        3.68866058       8.04432443      11.65507699        1       1.98820599       1.25849628      -1.06188905      -1.63404124
S        3.67348872       7.93210395       8.44923685        2       1.76272378       2.41595688      -0.75581633       0.32927581
27
Lattice="8.993247061919346 0.0 0.0 -4.9241265232950715 8.15805320052596 0.0 0.0 0.0 100.0" Properties=species:S:1:pos:R:3:atom_types:I:1:energies:R:1:forces:R:3 energy=-27.584490225583075 free_energy=-27.584490225583075 stress="-0.0033109320309448946 -0.0013236084209852447 8.215549639536556e-05 -0.0013236084209852447 -0.0005721913089467991 0.00029553721597800047 8.215549639536556e-05 0.00029553721597800047 -0.0003829993463231088" pbc="T T T"
Mo       0.68600039       0.41965728       9.98741006        0       2.85827718      -0.45240178       0.95587579       0.82658014
S        0.42934661       2.28282515      11.41071371        1       3.97757867       1.02105539      -1.06779199       3.15382422
S        0.57184101       2.27245324       8.47741150        2       3.39219431       0.67942056      -0.36923303      -1.25937077
Mo      -0.99398942       3.11941296       9.93578882        0       2.93394963      -0.69165112       0.88174693       0.26433145
S       -1.08140558       4.84390766      11.60578443        1       2.99362278       0.49240553       0.92784644      -0.79532362
S       -0.98165069       4.97242386       8.50730955        2       3.77217668      -0.42933684       0.42358674      -0.77302837
Mo      -2.60463141       5.87476310      10.03576854        0       2.69090478       1.26616434       0.21513414       0.23563373
S       -2.97089039       7.71264016      11.75358935        1       2.41449106       2.13721052      -0.24195074      -1.57263198
S       -2.71295687       7.56362655       8.56085354        2       3.62904243       0.10315006       0.94005004      -2.87009179
Mo       3.64515639       0.51390921       9.92064689        0       1.02864946       0.99794583      -2.26947638       5.60764120
S        3.49912314       2.33777209      11.76229032        1       2.38682663       0.98514539      -1.06349747      -1.60797178
S        3.48173740       2.16348836       8.49569747        2       2.97593779       0.67186585       0.98409130      -2.16336822