BEGIN_CFG
 Size
    27
 Supercell
         9.811129      0.000000      0.000000
        -4.528778      8.422697      0.000000
         0.000000      0.000000    100.000000
 AtomData:  id type       cartes_x      cartes_y      cartes_z           fx          fy          fz
             1    0       0.834730      0.292830     10.077259    -0.445892    2.924211    1.688032
             2    1       0.871711      2.349227     11.648101     0.142666   -0.871440   -0.724867
             3    2       0.865456      2.264519      8.181936     0.044982   -0.053260    3.348449
             4    0      -0.774806      3.168834     10.127563     1.790885    1.805678   -3.209554
             5    1      -0.620704      5.193335     11.812201    -0.129694   -0.744449   -1.980773
             6    2      -0.512186      5.059762      8.407740    -0.293405   -0.004150    2.256067
             7    0      -2.186961      6.011829     10.014622     0.051376   -0.972296    1.316808
             8    1      -1.922304      7.881238     11.575413    -1.669399   -0.535051    1.020831
             9    2      -2.159878      7.893049      8.629206     0.298224   -0.532132   -3.192310
            10    0       4.028896      0.322559     10.046703     1.386594    1.790996   -1.231857
            11    1       4.124323      2.250785     11.556262    -0.757211   -0.044243    0.308161
            12    2       4.186924      2.162178      8.427343    -0.543408    0.469319    1.681406
            13    0       2.428837      3.277672     10.026798     1.257677   -2.156026   -0.629299
            14    1       2.790507      5.170319     11.555502    -0.090289   -0.237426    0.836050
            15    2       2.854675      4.963610      8.503569    -0.846010    1.734161    0.471802
            16    0       1.022120      6.047151     10.200947     0.684468   -0.438543   -2.505078
            17    1       1.055399      8.004600     11.587650     1.395413   -0.129527    0.048919
            18    2       1.291580      7.837930      8.537269    -1.602094   -0.738220   -1.536793
            19    0       7.372551      0.376779      9.859357     0.257654    2.071370    5.005434
            20    1       7.590425      2.226121     11.573226    -1.752558   -1.099846    0.291817
            21    2       7.522201      2.405063      8.322334    -0.865060   -0.535536    2.004941
            22    0       5.799192      3.110272     10.101927     0.904875    1.436133   -1.946714
            23    1       6.102830      5.168926     11.818064    -0.415477   -0.332563   -2.597778
            24    2       5.775326      5.127533      8.381657     1.685618   -0.689497    1.708684
            25    0       4.490175      6.136916     10.045958    -1.163473   -0.649008    0.215676
            26    1       4.362491      7.858185     11.652295     0.181714    0.703941   -1.318755
            27    2       4.503328      8.129866      8.471545     0.491825   -2.172596   -1.329297
 Energy
        -27.030692452330
 PlusStress:  xx          yy          zz          yz          xz          xy
       -21.57214   -24.39968   -19.99450    -1.32427    -2.10009    -2.70787
 Feature   mindist	2.251504
END_CFG

BEGIN_CFG
 Size
    27
 Supercell
         9.261324      0.000000      0.000000
        -4.267257      7.427684      0.000000
         0.000000      0.000000    100.000000
 AtomData:  id type       cartes_x      cartes_y      cartes_z           fx          fy          fz
             1    0       0.603600      0.378436      9.818912     5.181076   -0.544168    5.864956
             2    1       0.919118      2.022014     11.549525     0.229287    0.231083   -1.740812
             3    2       1.031287      1.970531      8.500177    -2.549230    0.521327   -7.293372
             4    0      -0.514542      2.934932      9.887906    -1.224375   -2.148417    3.352567
             5    1      -0.528159      4.562625     11.509520     0.805944   -0.516732    1.093960
             6    2      -0.389083      4.442743      8.215657     0.134880    1.494384    0.963163
             7    0      -1.947739      5.209026      9.903048    -0.832566    2.496361   -2.033167
             8    1      -1.787272      7.049250     11.810418    -0.161400   -0.020235   -2.827340
             9    2      -1.958865      6.966532      8.382807     0.919859    0.704009    0.362464
            10    0       4.092906      0.586324      9.934783    -2.553751   -6.344062   -0.806343
            11    1       4.102073      2.178888     11.419768    -1.298935    0.906826    1.266543
            12    2       4.125754      2.005028      8.189581    -1.088913    0.440745   -0.736840
            13    0       2.471316      2.792170      9.731428     2.572559    0.926334    6.267476
            14    1       2.598094      4.478170     11.434652     1.799978   -0.256369   -0.322557
            15    2       2.487757      4.503605      8.222612     0.756633    0.956925    0.440171
            16    0       1.108537      5.392789     10.066836    -1.287028   -4.778801   -4.573012
            17    1       1.170379      6.912559     11.455612     0.910989    3.757714    2.915155
            18    2       1.138680      6.713597      8.365652     0.801386    3.997230   -0.434912
            19    0       7.045643      0.535543      9.971419    -0.563124   -7.215127   -3.776208
            20    1       7.077599      1.859458     11.537591     0.595632    4.224894    1.235739
            21    2       7.055590      2.150783      8.467976     2.272518   -0.411311   -3.966752
            22    0       5.549561      2.723859      9.827910     0.649061    3.599905    2.212319
            23    1       5.774182      4.486751     11.302562    -0.820919   -0.312483    1.558434
            24    2       5.547790      4.527753      8.277741     3.646790   -1.616570   -2.169816
            25    0       4.337735      5.348168      9.700106    -5.639327   -0.195521    4.994945
            26    1       4.259426      6.992611     11.466857    -0.286181   -0.941118   -0.194586
            27    2       4.420701      6.996631      8.241665    -2.970843    1.043178   -1.652174
 Energy
        -21.640590018908
 PlusStress:  xx          yy          zz          yz          xz          xy
        21.78345    61.99833    20.72642    -1.81075    -0.09101    -9.39969
 Feature   mindist	2.039715
END_CFG

BEGIN_CFG
 Size
    27
 Supercell
         8.913963      0.000000      0.000000
        -4.676675      8.108979      0.000000
         0.000000      0.000000    100.000000
 AtomData:  id type       cartes_x      cartes_y      cartes_z           fx          fy          fz
             1    0       0.773843      0.456315     10.051860     1.253528   -0.302472   -0.683400
             2    1       0.795595      2.346022     11.551085    -2.605961   -2.495991    2.757312
             3    2       0.895304      2.108362      8.558392    -4.216202   -0.728709   -3.950081
             4    0      -0.748144      3.141995     10.088370    -0.891868    0.840794   -3.549257
             5    1      -0.903586      5.065448     11.611824    -0.798774   -1.695576    0.337258
             6    2      -0.939228      5.048453      8.355102     0.813970   -1.757781    0.809060
             7    0      -2.436243      5.684958      9.937692     1.276957    3.301351   -0.484393
             8    1      -2.448838      7.566266     11.529709    -0.665754   -0.873273    1.728126
             9    2      -2.323933      7.602886      8.544140    -0.011802    0.353797   -0.106376
            10    0       3.823428      0.440483     10.246936    -3.732105    2.103357   -8.686942
            11    1       3.479483      2.265773     11.610645     1.569043    0.619973    0.332887
            12    2       3.809058      2.149223      8.358423    -2.045778   -0.417556    1.311057
            13    0       1.987698      3.017201      9.979008     7.165303    4.168236    2.119366
            14    1       1.987656      4.772704     11.756349     0.728717    1.108280   -2.385299
            15    2       1.885325      4.967747      8.634094     0.707412   -0.783136   -3.780460
            16    0       0.485074      5.897088     10.071172     0.881119    1.352596   -0.188999
            17    1       0.344132      7.720394     11.578873     4.497830   -1.981994    4.172531
            18    2       0.569718      7.697408      8.243651    -0.166531   -0.778965    2.534517
            19    0       6.690563      0.388587     10.028070    -0.415031   -0.017323   -1.600532
            20    1       6.670244      2.206521     11.490126    -1.352559    0.329941    1.660251
            21    2       6.506181      2.125834      8.474892     1.614017    1.067161   -0.233564
            22    0       5.016074      3.242788      9.930389     1.070172   -1.819539    1.200740
            23    1       5.141881      4.927138     11.456238    -1.920259   -0.294437    1.719524
            24    2       4.987681      4.981438      8.260052    -0.332083   -0.625661    0.522747
            25    0       3.546828      5.830474      9.937225    -0.301130   -0.830631    1.000234
            26    1       3.568277      7.527700     11.391320    -0.821696    0.292330    4.435509
            27    2       3.639887      7.684113      8.460533    -1.300535   -0.134773   -0.991817
 Energy
        -25.737499931535
 PlusStress:  xx          yy          zz          yz          xz          xy
        35.29052    12.05229    22.88666    -0.87691     4.99492     8.49301
 Feature   mindist	1.973607
END_CFG

BEGIN_CFG
 Size
    27
 Supercell
         9.351682      0.000000      0.000000
        -5.103549      8.335490      0.000000
         0.000000      0.000000    100.000000
 AtomData:  id type       cartes_x      cartes_y      cartes_z           fx          fy          fz
             1    0       0.678606      0.505878     10.027677    -2.086514   -3.031166    0.299305
             2    1       0.481916      2.140938     11.528789    -0.054866    1.867297    0.401588
             3    2       0.454829      2.068532      8.403329     0.351766    1.787153   -1.150094
             4    0      -0.975682      3.246714      9.872850    -1.062431   -0.666726    3.761972
             5    1      -1.210689      5.069730     11.675298    -0.520755   -0.635807   -1.614245
             6    2      -1.191026      5.138159      8.489096    -0.003031   -0.820462   -3.373902
             7    0      -2.710628      6.051357      9.920210    -1.198231    0.753379    3.481679
             8    1      -2.863024      7.917167     11.670597     0.401255   -0.452053   -1.801778
             9    2      -3.140441      7.946379      8.380857     2.800442   -0.716253    0.338683
            10    0       3.891083      0.389109     10.002237    -3.608054    2.172346    2.424998
            11    1       3.761461      2.419602     11.569193    -1.022122   -1.008010   -0.817360
            12    2       3.536077      2.315292      8.486663     1.529744   -0.415672   -0.545461
            13    0       1.927674      3.111136      9.934575     1.599187    2.299764    1.697324
            14    1       2.015956      5.092410     11.593169    -0.871772   -1.351567   -0.826925
            15    2       1.892742      5.272168      8.384919     0.133906   -1.878949    0.231676
            16    0       0.271693      5.785826     10.023244     2.358774    4.358059    1.793712
            17    1       0.270694      7.858843     11.686853     0.430760   -0.693259   -2.040331
            18    2       0.116288      7.864939      8.498429     1.672881   -1.582608   -1.522598
            19    0       6.933389      0.464585      9.872833    -1.336826    0.356096    2.833640
            20    1       6.935431      2.332170     11.590299    -0.978041   -0.176413   -1.871690
            21    2       6.797290      2.375118      8.401489    -0.833632   -0.089419   -0.431753
            22    0       5.219565      3.366315     10.002040     0.516004   -3.052839   -1.984344
            23    1       5.099612      4.970668     11.440699     0.558095    2.217083    2.644112
            24    2       5.082691      5.143152      8.455920    -0.145968   -0.343883   -1.248361
            25    0       3.514648      5.953391     10.004407    -0.694861    1.744763   -0.802520
            26    1       3.226166      7.871724     11.576044     1.168188   -0.289509   -1.087019
            27    2       3.311617      7.828393      8.313146     0.896099   -0.351344    1.209693
 Energy
        -28.267632398783
 PlusStress:  xx          yy          zz          yz          xz          xy
         0.72937   -11.75615    -3.50197     5.29239   -11.26753     4.44001
 Feature   mindist	2.158258
END_CFG

BEGIN_CFG
 Size
    27
 Supercell
        10.797209      0.000000      0.000000
        -4.724135      7.946282      0.000000
         0.000000      0.000000    100.000000
 AtomData:  id type       cartes_x      cartes_y      cartes_z           fx          fy          fz
             1    0       0.896359      0.494827     10.001327     0.799116   -1.244668    0.355081
             2    1       1.018634      2.216786     11.753469    -0.184462    0.314239   -2.158967
             3    2       1.055282      2.174109      8.371434     0.199250    0.955161    0.517632
             4    0      -0.716972      2.966679      9.977771    -0.286074   -0.485360    2.706049
             5    1      -0.605869      4.883323     11.585420     0.049925    0.206954   -1.495784
             6    2      -0.533942      4.666513      8.481862    -0.444045    1.974284    0.405532
             7    0      -2.440640      5.892343      9.909433     1.257449   -3.572503    1.053958
             8    1      -2.114877      7.556800     11.509138    -0.171495    0.573235    0.424510
             9    2      -1.922513      7.573711      8.413931    -1.114465    1.004583   -0.279687
            10    0       4.451619      0.372571     10.013261     1.416143    0.894661   -0.059914
            11    1       4.724186      2.348707     11.600354    -0.814851   -0.892823   -1.556393
            12    2       4.551805      2.325860      8.383606     0.957047   -1.415411    0.294836
            13    0       2.984069      3.168479      9.840588    -0.976838   -2.349492    3.997222
            14    1       3.219601      4.801688     11.693438    -0.501356    0.666638   -2.596691
            15    2       3.150235      4.703878      8.258718    -0.067576    2.558414    0.332488
            16    0       1.365546      5.655601     10.099839     0.573043   -0.806753   -1.402657
            17    1       1.539054      7.379066     11.684509    -0.404415    1.166141   -1.663262
            18    2       1.750117      7.541867      8.248626    -0.489775    0.105648    2.223007
            19    0       8.118971      0.541420      9.891976     0.197122   -4.267484    3.382961
            20    1       8.119731      2.187483     11.694194     0.149657    0.556640   -2.092529
            21    2       8.166358      2.197376      8.529998     0.260761    2.353666   -1.903605
            22    0       6.330960      3.088144      9.997175     1.721416   -0.171470   -0.164500
            23    1       6.666304      4.881196     11.577666    -0.343067    0.438073   -1.724808
            24    2       6.847457      4.883033      8.246531    -1.019515   -0.038837    1.488601
            25    0       4.940337      5.640733      9.847648     0.435231   -0.993850    2.255598
            26    1       5.194384      7.475652     11.479691    -0.550405    0.556472   -0.942019
            27    2       5.253368      7.423117      8.477247    -0.647821    1.913843   -1.396659
 Energy
        -23.908162006260
 PlusStress:  xx          yy          zz          yz          xz          xy
       -49.34353     0.72328   -28.15743    -7.68662    -0.47019    -6.15758
 Feature   mindist	2.144626
END_CFG

BEGIN_CFG
 Size
    27
 Supercell
         9.458853      0.000000      0.000000
        -4.708428      8.432709      0.000000
         0.000000      0.000000    100.000000
 AtomData:  id type       cartes_x      cartes_y      cartes_z           fx          fy          fz
             1    0       0.747912      0.335331      9.985922    -0.476103    0.377226    1.556114
             2    1       0.968570      2.144050     11.575163    -1.037543    1.063200   -0.359420
             3    2       0.623322      2.309623      8.634218     1.244158    0.113329   -3.414403
             4    0      -0.764741      3.351599     10.070719    -1.727251   -1.205511    1.248378
             5    1      -0.743381      5.262466     11.582637     0.344312   -0.987706   -0.333971
             6    2      -0.943572      5.142425      8.397454     1.954747   -1.709619   -1.247512
             7    0      -2.274576      5.920075      9.946781    -3.083892    2.886324    2.642569
             8    1      -2.294347      8.074874     11.498534    -1.487373   -2.813589    2.036396
             9    2      -2.467729      7.800636      8.456886     1.048427    0.194933   -0.444190
            10    0       3.833859      0.350003     10.065766     2.288128    1.844429   -2.921780
            11    1       3.899612      2.372613     11.529282     0.395814   -0.118346   -0.200055
            12    2       3.812890      2.195141      8.435147     0.928898    0.299745    0.435698
            13    0       2.380889      3.316834      9.934837    -0.263516   -1.290099    1.469640
            14    1       2.382479      5.146240     11.405447    -0.896247   -0.486427    2.018498
            15    2       2.408499      5.106276      8.423219    -0.158537   -0.319185   -2.157539
            16    0       0.766844      5.883629      9.852925    -0.103584    3.005199    1.751580
            17    1       0.864384      8.097374     11.693632    -0.420658   -0.679183   -1.840059
            18    2       0.657895      7.895048      8.370019     0.687324   -0.127034    1.384052
            19    0       7.137453      0.522376      9.952211    -1.601241   -1.946503   -0.127676
            20    1       7.104485      2.201303     11.632957     0.205155    1.481616   -1.094479
            21    2       6.914977      2.246220      8.439095     1.634606    1.379009   -0.082337
            22    0       5.538360      3.330856      9.996687    -1.201816   -2.533584    1.119678
            23    1       5.442937      5.152916     11.541317     0.663549    0.194723   -0.103336
            24    2       5.603403      4.977655      8.420176    -0.807842    1.292507   -0.178661
            25    0       3.892156      6.047697      9.974535     1.681641    1.127593   -1.956453
            26    1       3.745207      7.922672     11.558973     1.463679   -0.561665   -0.401579
            27    2       4.079509      7.959479      8.306368    -1.274831   -0.481385    1.200847
 Energy
        -28.728527960432
 PlusStress:  xx          yy          zz          yz          xz          xy
        -5.26993   -15.14845     4.42046    -5.53751    -8.66591    -2.96386
 Feature   mindist	2.137670
END_CFG

BEGIN_CFG
 Size
    27
 Supercell
         8.863292      0.000000      0.000000
        -4.973175      7.855757      0.000000
         0.000000      0.000000    100.000000
 AtomData:  id type       cartes_x      cartes_y      cartes_z           fx          fy          fz
             1    0       0.935557      0.336582      9.880464    -5.763311    1.624923    5.077069
             2    1       0.435061      2.051142     11.744461     1.050970    0.325934   -1.892462
             3    2       0.588919      2.248580      8.644688     1.310890   -0.390382   -3.496696
             4    0      -0.987700      3.042759     10.003546     0.668053    0.737668    3.327223
             5    1      -0.842952      4.878777     11.528589    -3.825150   -1.848567    2.913092
             6    2      -1.006881      4.694349      8.352384    -0.297255    1.379582    1.394872
             7    0      -2.566304      5.702893     10.042937     0.906172   -1.669536   -0.427918
             8    1      -2.715697      7.461882     11.613229     0.237861   -0.639921    0.094464
             9    2      -2.675526      7.371204      8.465006     1.968019   -0.269107   -2.133019
            10    0       3.694007      0.557356     10.078109     1.542212   -4.575849    0.607714
            11    1       3.607408      2.170680     11.665310    -0.619750    0.511826    1.045364
            12    2       3.601578      2.035371      8.550135    -2.322052    1.739296   -1.770430
            13    0       2.068507      3.040177     10.210141    -0.858830   -1.393277   -4.850241
            14    1       1.865228      4.742288     11.441912     0.550765    1.682622    6.764320
            15    2       2.013376      4.837142      8.447524    -1.731668   -1.002859    1.282332
            16    0       0.345008      5.751139     10.127979     2.482765    0.303825   -6.341308
            17    1       0.220105      7.519179     11.739368     0.098624   -0.204875   -1.274117
            18    2       0.401489      7.370139      8.507661    -1.948979    0.731990   -0.223567
            19    0       6.726434      0.515132     10.016741    -0.453096   -1.444468    0.369456
            20    1       6.498778      2.006389     11.713321    -0.569645    2.345945   -1.138002
            21    2       6.453250      2.234314      8.430417    -0.162818   -0.599635   -0.340519
            22    0       4.881820      3.031708      9.998550     3.628929    0.632510    2.915009
            23    1       4.915321      4.753761     11.722348    -0.566493    0.440413   -1.439659
            24    2       4.843738      4.615237      8.384168    -0.400070    2.215752    0.834538
            25    0       3.324711      5.725738     10.067117     2.304065   -0.362150   -1.775305
            26    1       3.129015      7.462285     11.664368     1.365606   -0.600790   -1.156126
            27    2       3.098009      7.367523      8.255539     1.404189    0.329132    1.633918
 Energy
        -25.754758148989
 PlusStress:  xx          yy          zz          yz          xz          xy
        31.02119    34.63590     4.67518    -4.11466     0.86277    13.91052
 Feature   mindist	2.033218
END_CFG

BEGIN_CFG
 Size
    27
 Supercell
         9.662664      0.000000      0.000000
        -4.857952      8.334840      0.000000
         0.000000      0.000000    100.000000
 AtomData:  id type       cartes_x      cartes_y      cartes_z           fx          fy          fz
             1    0       0.819565      0.696350     10.058111    -0.435538   -6.476652   -1.866926
             2    1       0.637674      2.248270     11.503687     1.187885    3.095340    2.813194
             3    2       0.896866      2.248773      8.417598    -0.305209    2.413696   -0.144681
             4    0      -0.747145      3.404181     10.010258    -1.274285   -2.900190   -1.671945
             5    1      -0.737582      5.198230     11.473511    -0.853970   -0.760380    2.719801
             6    2      -0.942483      5.080445      8.373116     0.628854    0.624853    0.550441
             7    0      -2.456163      5.952597     10.036444    -0.257683    0.685987   -1.377085
             8    1      -2.362925      7.756964     11.689804    -0.452029    1.070318   -1.656357
             9    2      -2.417618      7.722861      8.458122    -0.326728    1.686381    0.788133
            10    0       3.994555      0.586399      9.995415     0.595522   -4.162329    1.059763
            11    1       4.123343      2.140924     11.560969    -1.993007    1.845281    2.006419
            12    2       4.091721      2.354525      8.556876    -1.439630    0.848595   -1.728080
            13    0       2.356846      3.444292      9.991172     0.725128   -6.004480    0.688631
            14    1       2.425056      5.025985     11.503097    -0.282099    1.739383    2.224341
            15    2       2.440405      5.035261      8.488414     0.189161    2.341751   -0.800386
            16    0       0.751384      5.987871     10.020821     1.222126    1.096244   -2.241321
            17    1       0.766385      7.732455     11.712223    -0.622584    0.481444   -1.636390
            18    2       0.882212      7.975847      8.553963    -3.013928   -1.558685   -2.396477
            19    0       7.080396      0.358992      9.987445     3.848866    0.941970    4.003448
            20    1       7.149727      2.344588     11.542481     1.010034   -0.242045    0.206925
            21    2       7.235779      2.172263      8.561525    -0.338902    1.380929   -0.429984
            22    0       5.517725      3.198252     10.117960     2.134489    2.192905   -2.232378
            23    1       5.513611      5.217162     11.572225     1.718278   -1.720924    1.872218
            24    2       5.559472      5.301353      8.287778     0.376911   -1.099790    2.128039
            25    0       4.127040      6.066360     10.119629    -2.929541   -0.114025   -5.155319
            26    1       3.871077      7.769285     11.603974     0.510660    1.958789   -0.076579
            27    2       3.885998      7.802877      8.321409     0.377220    0.635633    2.352556
 Energy
        -26.312265368781
 PlusStress:  xx          yy          zz          yz          xz          xy
       -18.41009    -2.36354     9.40172     0.55470     5.38559     2.24479
 Feature   mindist	2.089640
END_CFG

BEGIN_CFG
 Size
    27
 Supercell
         9.491578      0.000000      0.000000
        -4.892339      8.241594      0.000000
         0.000000      0.000000    100.000000
 AtomData:  id type       cartes_x      cartes_y      cartes_z           fx          fy          fz
             1    0       0.898370      0.461819      9.960415    -2.591365   -0.501652    1.135754
             2    1       0.830785      2.198414     11.651830    -0.058135    0.173733   -1.558620
             3    2       0.777482      2.259491      8.331010     0.093908    0.065320    1.287193
             4    0      -0.812607      3.103453     10.054231     0.245286   -0.150871   -0.220021
             5    1      -0.812239      4.940130     11.655342    -0.905948    0.016636   -1.430031
             6    2      -0.854723      5.006229      8.549804     0.276051   -1.312234   -3.060060
             7    0      -2.501665      5.774783      9.850465     0.804999    2.453331    4.583687
             8    1      -2.612824      7.791007     11.605687     1.106150   -0.895813   -1.214558
             9    2      -2.507542      7.696898      8.481512     1.135888    0.217079   -1.353765
            10    0       4.010079      0.493535     10.037386    -1.972808   -1.593331    2.455206
            11    1       3.990130      2.142051     11.590435    -0.027400    1.569884   -0.064948
            12    2       4.004984      2.194774      8.392122     0.196301    0.331467    0.251010
            13    0       2.421911      3.060395      9.964607    -0.783743    0.312003    2.103013
            14    1       2.109327      4.982956     11.668990     1.667673   -0.594466   -1.270910
            15    2       2.320680      4.812662      8.481394    -0.097879    1.140036   -1.070666
            16    0       0.728656      5.812950     10.010837    -0.369361    0.466249    4.428524
            17    1       0.678443      7.839109     11.632894     0.465800   -1.010737   -0.940576
            18    2       0.689621      7.753356      8.792289    -0.235299   -0.812313   -8.699858
            19    0       7.326094      0.402488      9.871968    -2.125882    0.264428    5.040563
            20    1       7.013866      1.971919     11.461523     1.170561    1.948007    1.658979
            21    2       7.102797      2.193918      8.461243     0.575181    0.995984   -1.559462
            22    0       5.578782      3.107302      9.994548    -1.546213    0.077568   -0.681295
            23    1       5.595545      5.002727     11.426144    -1.157967   -0.500986    1.668070
            24    2       5.296592      5.006917      8.411500     0.530366   -1.064528   -0.910586
            25    0       3.797717      5.895130      9.996768     0.193728    0.148705    0.937368
            26    1       3.672986      7.742128     11.568023     2.076772   -0.425540   -0.592391
            27    2       3.840430      7.793341      8.390899     1.333337   -1.317958   -0.921617
 Energy
        -28.408022287643
 PlusStress:  xx          yy          zz          yz          xz          xy
        -1.76604    -2.94340    13.30414     2.20047     1.18434    -2.64853
 Feature   mindist	2.212704
END_CFG

BEGIN_CFG
 Size
    27
 Supercell
         9.500453      0.000000      0.000000
        -5.171381      8.653364      0.000000
         0.000000      0.000000    100.000000
 AtomData:  id type       cartes_x      cartes_y      cartes_z           fx          fy          fz
             1    0       0.777413      0.456011      9.815510    -0.811850    0.289538    2.888613
             2    1       0.763434      2.313579     11.554719    -0.306858    0.377705   -2.461892
             3    2       0.724671      2.336235      8.436999    -0.272651    0.573188   -2.452314
             4    0      -0.937425      3.315427      9.839471     0.466259    0.349276    2.572397
             5    1      -0.929367      5.267717     11.417268    -1.936330   -0.571354   -0.188637
             6    2      -1.038474      5.237306      8.304888    -0.132989   -0.137638   -0.181061
             7    0      -2.706307      6.289631      9.750411     0.451481   -0.496879    3.954336
             8    1      -2.834664      8.333003     11.377930    -0.546091   -2.170332    0.987478
             9    2      -2.857715      8.172740      8.294716     0.600738   -0.082237   -0.682217