BEGIN_CFG
 Size
    12
 Supercell
         3.145900      0.000000      0.000000
         0.000000      5.448900      0.000000
         0.000000      0.000000     28.386891
 AtomData:  id type       cartes_x      cartes_y      cartes_z           fx          fy          fz
             1    0       0.786482      0.454071     11.571722    -0.000000    0.000000   -0.052296
             2    1       0.786482      2.270374     13.143445    -0.000001    0.000000   -7.675201
             3    1       0.786482      2.270374      9.999999     0.000000    0.000000    0.000000
             4    0       2.359418      3.178526     11.571722     0.000000    0.000000   -0.052296
             5    1       2.359418      4.994828     13.143445     0.000001   -0.000001   -7.675201
             6    1       2.359418      4.994828      9.999999     0.000000    0.000000    0.000000
             7    2       0.786482      0.454071     16.815168    -0.000000    0.000000    0.052296
             8    3       0.786482      2.270374     18.386891     0.000000    0.000000    0.000000
             9    3       0.786482      2.270374     15.243445    -0.000001    0.000000    7.675201
            10    2       2.359418      3.178526     16.815168     0.000000    0.000000    0.052296
            11    3       2.359418      4.994828     18.386891     0.000000    0.000000    0.000000
            12    3       2.359418      4.994828     15.243445     0.000001   -0.000001    7.675201
 Energy
          5.220011284934
 Feature   mindist	2.100000
END_CFG

BEGIN_CFG
 Size
    12
 Supercell
         3.145900      0.000000      0.000000
         0.000000      5.448900      0.000000
         0.000000      0.000000     28.386891
 AtomData:  id type       cartes_x      cartes_y      cartes_z           fx          fy          fz
             1    0       0.786482     -0.000004     11.571722    -0.000000   -0.033264   -0.037977
             2    1       0.786482      1.816299     13.143445    -0.000003   -2.085454   -3.389555
             3    1       0.786482      1.816299      9.999999     0.000000    0.000000    0.000000
             4    0       2.359418      2.724450     11.571722     0.000000   -0.033264   -0.037977
             5    1       2.359418      4.540753     13.143445     0.000003   -2.085457   -3.389552
             6    1       2.359418      4.540753      9.999999     0.000000    0.000000    0.000000
             7    2       0.786482      0.908146     16.815168    -0.000000    0.042708    0.034896
             8    3       0.786482      2.724449     18.386891     0.000000    0.000000    0.000000
             9    3       0.786482      2.724449     15.243445    -0.000003    2.076013    3.392632
            10    2       2.359418      3.632600     16.815168     0.000000    0.042707    0.034896
            11    3       2.359418      5.448903     18.386891     0.000000    0.000000    0.000000
            12    3       2.359418      5.448903     15.243445     0.000003    2.076011    3.392636
 Energy
          2.021159798300
 Feature   mindist	2.287954
END_CFG

BEGIN_CFG
 Size
    12
 Supercell
         3.145900      0.000000      0.000000
         0.000000      5.448900      0.000000
         0.000000      0.000000     28.386891
 AtomData:  id type       cartes_x      cartes_y      cartes_z           fx          fy          fz
             1    0       0.786482     -0.454079     11.571722    -0.000001    0.000001   -0.015888
             2    1       0.786482      1.362224     13.143445    -0.000020    0.000014   -1.222210
             3    1       0.786482      1.362224      9.999999     0.000000    0.000000    0.000000
             4    0       2.359418      2.270376     11.571722     0.000001    0.000001   -0.015888
             5    1       2.359418      4.086679     13.143445     0.000020    0.000012   -1.222201
             6    1       2.359418      4.086679      9.999999     0.000000    0.000000    0.000000
             7    2       0.786482      1.362221     16.815168    -0.000001   -0.000001    0.002727
             8    3       0.786482      3.178524     18.386891     0.000000    0.000000    0.000000
             9    3       0.786482      3.178524     15.243445    -0.000021   -0.000012    1.235361
            10    2       2.359418      4.086675     16.815168     0.000001   -0.000001    0.002727
            11    3       2.359418      5.902978     18.386891     0.000000    0.000000    0.000000
            12    3       2.359418      5.902978     15.243445     0.000021   -0.000013    1.235371
 Energy
          0.284560422279
 Feature   mindist	2.401908
END_CFG

BEGIN_CFG
 Size
    12
 Supercell
         3.145900      0.000000      0.000000
         0.000000      5.448900      0.000000
         0.000000      0.000000     28.386891
 AtomData:  id type       cartes_x      cartes_y      cartes_z           fx          fy          fz
             1    0       0.786482     -0.908154     11.571722    -0.000001   -0.009444   -0.021398
             2    1       0.786482      0.908149     13.143445    -0.000047    0.009439   -1.569844
             3    1       0.786482      0.908149      9.999999     0.000000    0.000000    0.000000
             4    0       2.359418      1.816301     11.571722     0.000001   -0.009443   -0.021398
             5    1       2.359418      3.632603     13.143445     0.000047    0.009448   -1.569844
             6    1       2.359418      3.632603      9.999999     0.000000    0.000000    0.000000
             7    2       0.786482      1.816296     16.815168    -0.000001   -0.009444    0.021398
             8    3       0.786482      3.632599     18.386891     0.000000    0.000000    0.000000
             9    3       0.786482      3.632599     15.243445    -0.000047    0.009439    1.569844
            10    2       2.359418      4.540751     16.815168     0.000001   -0.009443    0.021398
            11    3       2.359418      6.357053     18.386891     0.000000    0.000000    0.000000
            12    3       2.359418      6.357053     15.243445     0.000047    0.009448    1.569844
 Energy
          0.578494735670
 Feature   mindist	2.401908
END_CFG

BEGIN_CFG
 Size
    12
 Supercell
         3.145900      0.000000      0.000000
         0.000000      5.448900      0.000000
         0.000000      0.000000     28.386891
 AtomData:  id type       cartes_x      cartes_y      cartes_z           fx          fy          fz
             1    0       0.786482     -1.362229     11.571722    -0.000001   -0.000001   -0.002727
             2    1       0.786482      0.454074     13.143445    -0.000021   -0.000012   -1.235362
             3    1       0.786482      0.454074      9.999999     0.000000    0.000000    0.000000
             4    0       2.359418      1.362226     11.571722     0.000001   -0.000001   -0.002727
             5    1       2.359418      3.178528     13.143445     0.000021   -0.000014   -1.235371
             6    1       2.359418      3.178528      9.999999     0.000000    0.000000    0.000000
             7    2       0.786482      2.270371     16.815168    -0.000001    0.000001    0.015888
             8    3       0.786482      4.086674     18.386891     0.000000    0.000000    0.000000
             9    3       0.786482      4.086674     15.243445    -0.000020    0.000014    1.222210
            10    2       2.359418      4.994825     16.815168     0.000001    0.000001    0.015888
            11    3       2.359418      6.811128     18.386891     0.000000    0.000000    0.000000
            12    3       2.359418      6.811128     15.243445     0.000020    0.000013    1.222201
 Energy
          0.284560422284
 Feature   mindist	2.401908
END_CFG

BEGIN_CFG
 Size
    12
 Supercell
         3.145900      0.000000      0.000000
         0.000000      5.448900      0.000000
         0.000000      0.000000     28.386891
 AtomData:  id type       cartes_x      cartes_y      cartes_z           fx          fy          fz
             1    0       0.786482     -1.816303     11.571722    -0.000000    0.042708   -0.034896
             2    1       0.786482     -0.000001     13.143445    -0.000003    2.076012   -3.392630
             3    1       0.786482     -0.000001      9.999999     0.000000    0.000000    0.000000
             4    0       2.359418      0.908151     11.571722     0.000000    0.042707   -0.034896
             5    1       2.359418      2.724454     13.143445     0.000003    2.076010   -3.392634
             6    1       2.359418      2.724454      9.999999     0.000000    0.000000    0.000000
             7    2       0.786482      2.724446     16.815168    -0.000000   -0.033264    0.037977
             8    3       0.786482      4.540749     18.386891     0.000000    0.000000    0.000000
             9    3       0.786482      4.540749     15.243445    -0.000003   -2.085453    3.389553
            10    2       2.359418      5.448900     16.815168     0.000000   -0.033264    0.037977
            11    3       2.359418      7.265203     18.386891     0.000000    0.000000    0.000000
            12    3       2.359418      7.265203     15.243445     0.000003   -2.085456    3.389550
 Energy
          2.021158482788
 Feature   mindist	2.287954
END_CFG

BEGIN_CFG
 Size
    12
 Supercell
         3.145900      0.000000      0.000000
         0.000000      5.448900      0.000000
         0.000000      0.000000     28.386891
 AtomData:  id type       cartes_x      cartes_y      cartes_z           fx          fy          fz
             1    0       0.524324      0.454071     11.571722    -0.020405   -0.000146   -0.048396
             2    1       0.524324      2.270374     13.143445    -2.272852    0.000147   -5.752201
             3    1       0.524324      2.270374      9.999999     0.000000    0.000000    0.000000
             4    0       2.097259      3.178526     11.571722    -0.020405   -0.000146   -0.048396
             5    1       2.097259      4.994828     13.143445    -2.272852    0.000146   -5.752203
             6    1       2.097259      4.994828      9.999999     0.000000    0.000000    0.000000
             7    2       1.048640      0.454071     16.815168     0.020405   -0.000146    0.048396
             8    3       1.048640      2.270374     18.386891     0.000000    0.000000    0.000000
             9    3       1.048640      2.270374     15.243445     2.272852    0.000147    5.752203
            10    2       2.621576      3.178526     16.815168     0.020405   -0.000146    0.048396
            11    3       2.621576      4.994828     18.386891     0.000000    0.000000    0.000000
            12    3       2.621576      4.994828     15.243445     2.272852    0.000145    5.752202
 Energy
          3.810224951688
 Feature   mindist	2.164465
END_CFG

BEGIN_CFG
 Size
    12
 Supercell
         3.145900      0.000000      0.000000
         0.000000      5.448900      0.000000
         0.000000      0.000000     28.386891
 AtomData:  id type       cartes_x      cartes_y      cartes_z           fx          fy          fz
             1    0       0.524324     -0.000004     11.571722    -0.021091   -0.026271   -0.033077
             2    1       0.524324      1.816299     13.143445    -0.838718   -1.462975   -2.710649
             3    1       0.524324      1.816299      9.999999     0.000000    0.000000    0.000000
             4    0       2.097259      2.724450     11.571722    -0.021091   -0.026271   -0.033076
             5    1       2.097259      4.540753     13.143445    -0.838716   -1.462972   -2.710650
             6    1       2.097259      4.540753      9.999999     0.000000    0.000000    0.000000
             7    2       1.048640      0.908146     16.815168     0.012205    0.031400    0.033077
             8    3       1.048640      2.724449     18.386891     0.000000    0.000000    0.000000
             9    3       1.048640      2.724449     15.243445     0.847602    1.457843    2.710650
            10    2       2.621576      3.632600     16.815168     0.012206    0.031401    0.033076
            11    3       2.621576      5.448903     18.386891     0.000000    0.000000    0.000000
            12    3       2.621576      5.448903     15.243445     0.847603    1.457845    2.710649
 Energy
          1.492166379316
 Feature   mindist	2.347263
END_CFG

BEGIN_CFG
 Size
    12
 Supercell
         3.145900      0.000000      0.000000
         0.000000      5.448900      0.000000
         0.000000      0.000000     28.386891
 AtomData:  id type       cartes_x      cartes_y      cartes_z           fx          fy          fz
             1    0       0.524324     -0.454079     11.571722     0.020426    0.009585   -0.023453
             2    1       0.524324      1.362224     13.143445     0.621969    0.422524   -1.627725
             3    1       0.524324      1.362224      9.999999     0.000000    0.000000    0.000000
             4    0       2.097259      2.270376     11.571722     0.020427    0.009586   -0.023454
             5    1       2.097259      4.086679     13.143445     0.621991    0.422557   -1.627759
             6    1       2.097259      4.086679      9.999999     0.000000    0.000000    0.000000
             7    2       1.048640      1.362221     16.815168    -0.028941   -0.009439    0.011509
             8    3       1.048640      3.178524     18.386891     0.000000    0.000000    0.000000
             9    3       1.048640      3.178524     15.243445    -0.613477   -0.422704    1.639704
            10    2       2.621576      4.086675     16.815168    -0.028940   -0.009439    0.011508
            11    3       2.621576      5.902978     18.386891     0.000000    0.000000    0.000000
            12    3       2.621576      5.902978     15.243445    -0.613455   -0.422670    1.639670
 Energy
          0.623583901273
 Feature   mindist	2.401908
END_CFG

BEGIN_CFG
 Size
    12
 Supercell
         3.145900      0.000000      0.000000
         0.000000      5.448900      0.000000
         0.000000      0.000000     28.386891
 AtomData:  id type       cartes_x      cartes_y      cartes_z           fx          fy          fz
             1    0       0.524324     -0.908154     11.571722     0.033295   -0.005130   -0.033076
             2    1       0.524324      0.908149     13.143445     1.686296    0.005121   -2.710618
             3    1       0.524324      0.908149      9.999999     0.000000    0.000000    0.000000
             4    0       2.097259      1.816301     11.571722     0.033296   -0.005130   -0.033078
             5    1       2.097259      3.632603     13.143445     1.686381    0.005138   -2.710745
             6    1       2.097259      3.632603      9.999999     0.000000    0.000000    0.000000
             7    2       1.048640      1.816296     16.815168    -0.033296   -0.005130    0.033077
             8    3       1.048640      3.632599     18.386891     0.000000    0.000000    0.000000
             9    3       1.048640      3.632599     15.243445    -1.686381    0.005121    2.710745
            10    2       2.621576      4.540751     16.815168    -0.033295   -0.005130    0.033077
            11    3       2.621576      6.357053     18.386891     0.000000    0.000000    0.000000
            12    3       2.621576      6.357053     15.243445    -1.686296    0.005138    2.710617
 Energy
          1.492192621660
 Feature   mindist	2.347254
END_CFG

BEGIN_CFG
 Size
    12
 Supercell
         3.145900      0.000000      0.000000
         0.000000      5.448900      0.000000
         0.000000      0.000000     28.386891
 AtomData:  id type       cartes_x      cartes_y      cartes_z           fx          fy          fz
             1    0       0.524324     -1.362229     11.571722     0.028940   -0.009439   -0.011508
             2    1       0.524324      0.454074     13.143445     0.613444   -0.422666   -1.639653
             3    1       0.524324      0.454074      9.999999     0.000000    0.000000    0.000000
             4    0       2.097259      1.362226     11.571722     0.028941   -0.009439   -0.011509
             5    1       2.097259      3.178528     13.143445     0.613489   -0.422708   -1.639722
             6    1       2.097259      3.178528      9.999999     0.000000    0.000000    0.000000
             7    2       1.048640      2.270371     16.815168    -0.020427    0.009585    0.023454
             8    3       1.048640      4.086674     18.386891     0.000000    0.000000    0.000000
             9    3       1.048640      4.086674     15.243445    -0.622003    0.422562    1.627777
            10    2       2.621576      4.994825     16.815168    -0.020426    0.009585    0.023453
            11    3       2.621576      6.811128     18.386891     0.000000    0.000000    0.000000
            12    3       2.621576      6.811128     15.243445    -0.621958    0.422520    1.627708
 Energy
          0.623584044407
 Feature   mindist	2.401908
END_CFG

BEGIN_CFG
 Size
    12
 Supercell
         3.145900      0.000000      0.000000
         0.000000      5.448900      0.000000
         0.000000      0.000000     28.386891
 AtomData:  id type       cartes_x      cartes_y      cartes_z           fx          fy          fz
             1    0       0.524324     -1.816303     11.571722    -0.012206    0.031401   -0.033076
             2    1       0.524324     -0.000001     13.143445    -0.847604    1.457848   -2.710643
             3    1       0.524324     -0.000001      9.999999     0.000000    0.000000    0.000000
             4    0       2.097259      0.908151     11.571722    -0.012205    0.031400   -0.033077
             5    1       2.097259      2.724454     13.143445    -0.847600    1.457838   -2.710654
             6    1       2.097259      2.724454      9.999999     0.000000    0.000000    0.000000
             7    2       1.048640      2.724446     16.815168     0.021091   -0.026270    0.033077
             8    3       1.048640      4.540749     18.386891     0.000000    0.000000    0.000000
             9    3       1.048640      4.540749     15.243445     0.838714   -1.462968    2.710654
            10    2       2.621576      5.448900     16.815168     0.021091   -0.026271    0.033076
            11    3       2.621576      7.265203     18.386891     0.000000    0.000000    0.000000
            12    3       2.621576      7.265203     15.243445     0.838719   -1.462978    2.710643
 Energy
          1.492165454721
 Feature   mindist	2.347263
END_CFG

BEGIN_CFG
 Size
    12
 Supercell
         3.145900      0.000000      0.000000
         0.000000      5.448900      0.000000
         0.000000      0.000000     28.386891
 AtomData:  id type       cartes_x      cartes_y      cartes_z           fx          fy          fz
             1    0       0.262165      0.454071     11.571722    -0.033296   -0.005130   -0.033077
             2    1       0.262165      2.270374     13.143445    -1.686338    0.005131   -2.710681
             3    1       0.262165      2.270374      9.999999     0.000000    0.000000    0.000000
             4    0       1.835101      3.178526     11.571722    -0.033296   -0.005130   -0.033077
             5    1       1.835101      4.994828     13.143445    -1.686339    0.005129   -2.710682
             6    1       1.835101      4.994828      9.999999     0.000000    0.000000    0.000000
             7    2       1.310799      0.454071     16.815168     0.033296   -0.005130    0.033077
             8    3       1.310799      2.270374     18.386891     0.000000    0.000000    0.000000
             9    3       1.310799      2.270374     15.243445     1.686339    0.005131    2.710682
            10    2       2.883734      3.178526     16.815168     0.033295   -0.005130    0.033077
            11    3       2.883734      4.994828     18.386891     0.000000    0.000000    0.000000
            12    3       2.883734      4.994828     15.243445     1.686338    0.005129    2.710681
 Energy
          1.492192612664
 Feature   mindist	2.347260
END_CFG

BEGIN_CFG
 Size
    12
 Supercell
         3.145900      0.000000      0.000000
         0.000000      5.448900      0.000000
         0.000000      0.000000     28.386891
 AtomData:  id type       cartes_x      cartes_y      cartes_z           fx          fy          fz
             1    0       0.262165     -0.000004     11.571722    -0.028941   -0.009439   -0.011508
             2    1       0.262165      1.816299     13.143445    -0.613464   -0.422688   -1.639688
             3    1       0.262165      1.816299      9.999999     0.000000    0.000000    0.000000
             4    0       1.835101      2.724450     11.571722    -0.028941   -0.009439   -0.011508
             5    1       1.835101      4.540753     13.143445    -0.613469   -0.422687   -1.639687
             6    1       1.835101      4.540753      9.999999     0.000000    0.000000    0.000000
             7    2       1.310799      0.908146     16.815168     0.020427    0.009585    0.023453
             8    3       1.310799      2.724449     18.386891     0.000000    0.000000    0.000000
             9    3       1.310799      2.724449     15.243445     0.621983    0.422541    1.627742
            10    2       2.883734      3.632600     16.815168     0.020426    0.009585    0.023453
            11    3       2.883734      5.448903     18.386891     0.000000    0.000000    0.000000
            12    3       2.883734      5.448903     15.243445     0.621978    0.422541    1.627743
 Energy
          0.623584036260
 Feature   mindist	2.401908
END_CFG

BEGIN_CFG
 Size
    12
 Supercell
         3.145900      0.000000      0.000000
         0.000000      5.448900      0.000000
         0.000000      0.000000     28.386891
 AtomData:  id type       cartes_x      cartes_y      cartes_z           fx          fy          fz
             1    0       0.262165     -0.454079     11.571722     0.012206    0.031400   -0.033076
             2    1       0.262165      1.362224     13.143445     0.847620    1.457824   -2.710634
             3    1       0.262165      1.362224      9.999999     0.000000    0.000000    0.000000
             4    0       1.835101      2.270376     11.571722     0.012205    0.031401   -0.033077
             5    1       1.835101      4.086679     13.143445     0.847584    1.457863   -2.710664
             6    1       1.835101      4.086679      9.999999     0.000000    0.000000    0.000000
             7    2       1.310799      1.362221     16.815168    -0.021090   -0.026271    0.033077
             8    3       1.310799      3.178524     18.386891     0.000000    0.000000    0.000000
             9    3       1.310799      3.178524     15.243445    -0.838699   -1.462994    2.710664
            10    2       2.883734      4.086675     16.815168    -0.021091   -0.026270    0.033076
            11    3       2.883734      5.902978     18.386891     0.000000    0.000000    0.000000
            12    3       2.883734      5.902978     15.243445    -0.838735   -1.462953    2.710634
 Energy
          1.492165906405
 Feature   mindist	2.347261
END_CFG

BEGIN_CFG
 Size
    12
 Supercell
         3.145900      0.000000      0.000000
         0.000000      5.448900      0.000000
         0.000000      0.000000     28.386891
 AtomData:  id type       cartes_x      cartes_y      cartes_z           fx          fy          fz
             1    0       0.262165     -0.908154     11.571722     0.020405   -0.000146   -0.048396
             2    1       0.262165      0.908149     13.143445     2.272875    0.000126   -5.752112
             3    1       0.262165      0.908149      9.999999     0.000000    0.000000    0.000000
             4    0       1.835101      1.816301     11.571722     0.020404   -0.000146   -0.048397
             5    1       1.835101      3.632603     13.143445     2.272829    0.000166   -5.752292
             6    1       1.835101      3.632603      9.999999     0.000000    0.000000    0.000000
             7    2       1.310799      1.816296     16.815168    -0.020404   -0.000146    0.048396
             8    3       1.310799      3.632599     18.386891     0.000000    0.000000    0.000000
             9    3       1.310799      3.632599     15.243445    -2.272829    0.000126    5.752292
            10    2       2.883734      4.540751     16.815168    -0.020405   -0.000146    0.048396
            11    3       2.883734      6.357053     18.386891     0.000000    0.000000    0.000000
            12    3       2.883734      6.357053     15.243445    -2.272875    0.000166    5.752112
 Energy
          3.810224962727
 Feature   mindist	2.164461
END_CFG

BEGIN_CFG
 Size
    12
 Supercell
         3.145900      0.000000      0.000000
         0.000000      5.448900      0.000000
         0.000000      0.000000     28.386891
 AtomData:  id type       cartes_x      cartes_y      cartes_z           fx          fy          fz
             1    0       0.262165     -1.362229     11.571722     0.021091   -0.026271   -0.033076
             2    1       0.262165      0.454074     13.143445     0.838719   -1.462942   -2.710596
             3    1       0.262165      0.454074      9.999999     0.000000    0.000000    0.000000
             4    0       1.835101      1.362226     11.571722     0.021090   -0.026271   -0.033077
             5    1       1.835101      3.178528     13.143445     0.838715   -1.463006   -2.710703
             6    1       1.835101      3.178528      9.999999     0.000000    0.000000    0.000000
             7    2       1.310799      2.270371     16.815168    -0.012205    0.031401    0.033077
             8    3       1.310799      4.086674     18.386891     0.000000    0.000000    0.000000
             9    3       1.310799      4.086674     15.243445    -0.847601    1.457876    2.710703
            10    2       2.883734      4.994825     16.815168    -0.012206    0.031401    0.033076
            11    3       2.883734      6.811128     18.386891     0.000000    0.000000    0.000000
            12    3       2.883734      6.811128     15.243445    -0.847605    1.457812    2.710596
 Energy
          1.492166399125
 Feature   mindist	2.347258
END_CFG

BEGIN_CFG
 Size
    12
 Supercell
         3.145900      0.000000      0.000000
         0.000000      5.448900      0.000000
         0.000000      0.000000     28.386891
 AtomData:  id type       cartes_x      cartes_y      cartes_z           fx          fy          fz
             1    0       0.262165     -1.816303     11.571722    -0.020426    0.009586   -0.023453
             2    1       0.262165     -0.000001     13.143445    -0.621980    0.422548   -1.627735
             3    1       0.262165     -0.000001      9.999999     0.000000    0.000000    0.000000
             4    0       1.835101      0.908151     11.571722    -0.020427    0.009585   -0.023453
             5    1       1.835101      2.724454     13.143445    -0.621980    0.422533   -1.627749
             6    1       1.835101      2.724454      9.999999     0.000000    0.000000    0.000000
             7    2       1.310799      2.724446     16.815168     0.028940   -0.009439    0.011508
             8    3       1.310799      4.540749     18.386891     0.000000    0.000000    0.000000
             9    3       1.310799      4.540749     15.243445     0.613466   -0.422679    1.639694
            10    2       2.883734      5.448900     16.815168     0.028941   -0.009440    0.011508
            11    3       2.883734      7.265203     18.386891     0.000000    0.000000    0.000000
            12    3       2.883734      7.265203     15.243445     0.613466   -0.422694    1.639680
 Energy
          0.623583768034
 Feature   mindist	2.401908
END_CFG

BEGIN_CFG
 Size
    12
 Supercell
         3.145900      0.000000      0.000000
         0.000000      5.448900      0.000000
         0.000000      0.000000     28.386891
 AtomData:  id type       cartes_x      cartes_y      cartes_z           fx          fy          fz
             1    0       0.000007      0.454071     11.571722    -0.000000   -0.009444   -0.021398
             2    1       0.000007      2.270374     13.143445     0.000000    0.009445   -1.569844
             3    1       0.000007      2.270374      9.999999     0.000000    0.000000    0.000000
             4    0       1.572943      3.178526     11.571722     0.000000   -0.009444   -0.021398
             5    1       1.572943      4.994828     13.143445    -0.000000    0.009443   -1.569844
             6    1       1.572943      4.994828      9.999999     0.000000    0.000000    0.000000
             7    2       1.572957      0.454071     16.815168    -0.000000   -0.009444    0.021398
             8    3       1.572957      2.270374     18.386891     0.000000    0.000000    0.000000
             9    3       1.572957      2.270374     15.243445     0.000000    0.009445    1.569844
            10    2       3.145893      3.178526     16.815168     0.000000   -0.009444    0.021398
            11    3       3.145893      4.994828     18.386891     0.000000    0.000000    0.000000
            12    3       3.145893      4.994828     15.243445    -0.000000    0.009443    1.569844
 Energy
          0.578494735363
 Feature   mindist	2.401908
END_CFG

BEGIN_CFG
 Size
    12
 Supercell
         3.145900      0.000000      0.000000
         0.000000      5.448900      0.000000
         0.000000      0.000000     28.386891
 AtomData:  id type       cartes_x      cartes_y      cartes_z           fx          fy          fz
             1    0       0.000007     -0.000004     11.571722     0.000000   -0.000001   -0.002727
             2    1       0.000007      1.816299     13.143445     0.000004   -0.000009   -1.235371
             3    1       0.000007      1.816299      9.999999     0.000000    0.000000    0.000000
             4    0       1.572943      2.724450     11.571722    -0.000000   -0.000001   -0.002727