BEGIN_CFG
 Size
    27
 Supercell
         9.640631      0.000000      0.000000
        -4.559912      8.688879      0.000000
         0.000000      0.000000    100.000000
 AtomData:  id type       cartes_x      cartes_y      cartes_z           fx          fy          fz
             1    0       0.877930      0.361769      9.891257    -1.571246    2.276814    3.799280
             2    1       0.904322      2.585776     11.586729     0.519922   -0.592971   -1.704264
             3    2       0.843284      2.348442      8.432597     0.516151    0.632693    1.064170
             4    0      -0.763978      3.512181     10.034726    -0.370248   -2.121589    0.882429
             5    1      -0.739627      5.221792     11.814910     0.249799    0.925036   -2.644705
             6    2      -0.684824      5.281065      8.581261     0.852158    0.868722   -1.331726
             7    0      -2.291049      6.259812      9.965782     0.132940   -0.143745    3.124760
             8    1      -2.226348      8.198420     11.549318     0.641589   -0.628739   -0.547476
             9    2      -2.246299      8.092053      8.387813     1.570264   -0.147341    0.060805
            10    0       4.129702      0.406278     10.123929    -2.968725    0.743890   -4.512461
            11    1       4.018931      2.227356     11.582548     1.112662    0.078681    1.136503
            12    2       4.100296      2.390845      8.292673     0.467551   -1.351329    1.158554
            13    0       2.828135      3.346700      9.988773    -5.149441    1.752656   -0.204045
            14    1       2.533913      5.530836     11.580652     1.757462   -1.257759    0.096815
            15    2       2.568113      5.296528      8.456741     0.585671    0.183941    0.749020
            16    0       1.032605      6.257697     10.083455    -2.455337    1.399471   -0.416054
            17    1       0.889850      8.313712     11.727459     2.223941   -1.539026   -0.974254
            18    2       1.093101      8.327109      8.185090    -0.261149   -0.954977    1.879695
            19    0       7.113797      0.517953      9.852507    -0.046605    1.043710    4.463413
            20    1       7.318470      2.530631     11.685944    -0.543371   -0.636710   -2.367518
            21    2       7.065265      2.448330      8.326708     1.208921    0.228813    1.480969
            22    0       5.518856      3.307472     10.000848     2.479538    0.845733    0.471589
            23    1       5.724425      5.228472     11.632994    -0.263985    0.421983   -1.778547
            24    2       5.812045      5.276364      8.438386    -0.869371    0.103439    0.431578
            25    0       4.202437      6.470061      9.995179    -0.140778   -2.803392    1.705782
            26    1       4.342113      8.181332     11.672069    -0.273828    0.881670   -1.939894
            27    2       4.198396      8.259421      8.566749     0.595514   -0.209676   -4.084418
 Energy
        -25.368808684237
 Feature   mindist	2.219127
END_CFG

BEGIN_CFG
 Size
    27
 Supercell
         9.594548      0.000000      0.000000
        -4.893661      8.498745      0.000000
         0.000000      0.000000    100.000000
 AtomData:  id type       cartes_x      cartes_y      cartes_z           fx          fy          fz
             1    0       0.661697      0.305957      9.922713    -0.341342    2.601450    0.889354
             2    1       0.610024      2.328433     11.671191     0.390635   -0.654622   -1.972799
             3    2       0.596904      2.374107      8.406366     0.476972   -1.360716    0.059261
             4    0      -0.922827      3.177413      9.978983     0.449169    2.190010   -0.089763
             5    1      -0.985698      5.150676     11.566855     0.705040   -0.151541   -0.217312
             6    2      -0.872304      5.188644      8.583483    -0.836396   -0.204561   -1.426744
             7    0      -2.545570      6.150635     10.053233     0.144691    1.080323   -0.315654
             8    1      -2.792808      8.192786     11.619130     1.954573   -1.003399   -1.051888
             9    2      -2.489588      8.018774      8.387987     0.023753   -0.323907    1.142965
            10    0       4.047365      0.524017      9.977061    -3.360014    0.798942    2.536262
            11    1       3.906329      2.395444     11.653076    -0.774271   -0.871883   -0.648591
            12    2       3.868706      2.515415      8.388950     0.041294   -1.037051    0.906926
            13    0       2.199060      3.151549      9.984482     0.505549    1.140871    0.402425
            14    1       2.324893      5.149006     11.369114    -1.526423   -1.080952    4.115058
            15    2       2.109048      5.186856      8.485114     0.750316   -0.686693   -1.131399
            16    0       0.684578      6.176161     10.019181    -1.368815   -0.523199    1.449768
            17    1       0.628335      7.979617     11.590330     0.098689    0.250467    0.221238
            18    2       0.485781      8.018225      8.548960     2.179066   -0.425463   -2.563404
            19    0       7.095307      0.397645     10.033884    -0.209394    1.201312   -0.408573
            20    1       7.336968      2.465586     11.524142    -2.612940   -1.800383    1.713646
            21    2       6.815857      2.345800      8.534571     1.549169   -0.586842   -0.690331
            22    0       5.425758      3.238997     10.114448     0.810782    1.693136   -1.363780
            23    1       5.480547      5.170877     11.513589    -0.762579   -0.078863    1.570745
            24    2       5.452502      5.220330      8.536996     0.046751   -1.024897   -0.606848
            25    0       3.760364      5.997090     10.007946     1.919619    3.058409   -2.265061
            26    1       3.726263      7.969485     11.588639     0.550207   -0.709436   -1.084642
            27    2       3.810565      8.149227      8.328808    -0.804100   -1.490511    0.829139
 Energy
        -28.643243156331
 Feature   mindist	2.152348
END_CFG

BEGIN_CFG
 Size
    27
 Supercell
         9.508130      0.000000      0.000000
        -4.701438      8.183762      0.000000
         0.000000      0.000000    100.000000
 AtomData:  id type       cartes_x      cartes_y      cartes_z           fx          fy          fz
             1    0       0.724561      0.298379     10.156467     1.878485    1.527551   -0.181471
             2    1       0.932021      2.263714     11.571295    -1.926322   -0.408165   -0.169853
             3    2       0.905212      2.192782      8.562200    -1.147656   -1.984455   -3.722553
             4    0      -0.761786      3.072206      9.815397     0.893707    2.809586    5.403974
             5    1      -0.729765      5.001404     11.605173    -0.788023   -0.657769   -2.046421
             6    2      -0.732910      5.030818      8.302828     0.157209   -0.543231    0.806309
             7    0      -2.380406      5.900643      9.898075     1.575777    0.056637    3.246073
             8    1      -2.318283      7.673575     11.641708     0.695176   -0.291771   -1.232017
             9    2      -2.179170      7.885384      8.533889    -2.296029   -1.332438   -2.574683
            10    0       4.101416      0.390513      9.878321    -2.574612    2.853074    5.078684
            11    1       3.867348      2.297676     11.559174     0.902232   -0.551476   -1.502157
            12    2       3.950239      2.345950      8.420744     0.358110   -0.795280   -0.717777
            13    0       2.291572      3.180784      9.934551     2.867648    0.812210    2.397766
            14    1       2.108234      4.850152     11.724301     2.873763   -0.476343   -0.243430
            15    2       2.551442      5.100762      8.275699    -0.651636   -1.374420   -0.678946
            16    0       0.972479      5.547926      9.994361    -3.600578    4.479764   -1.393548
            17    1       0.813859      7.730056     11.453515     1.188603   -1.317478    0.174120
            18    2       0.781416      7.746384      8.423919     2.326114   -1.731714   -1.012868
            19    0       7.227222      0.404187      9.996830    -2.139072    1.668447    0.940430
            20    1       7.237152      2.393458     11.624899    -0.195158   -1.143847   -1.783945
            21    2       7.205261      2.373595      8.368030    -0.613081   -2.390602   -1.323727
            22    0       5.625768      3.089028      9.933705    -1.017048    1.982630    2.226563
            23    1       5.532007      4.971122     11.634260     0.056502   -0.155286   -2.502572
            24    2       5.598932      5.044058      8.394804    -0.181179   -0.896390   -1.021062
            25    0       3.951545      5.817353      9.851190     0.548512   -0.507419    5.764056
            26    1       3.895331      7.559719     11.606480     0.206937   -0.359584    0.179305
            27    2       4.041348      7.663201      8.611380     0.601620    0.727768   -4.110249
 Energy
        -27.010186631529
 Feature   mindist	2.170037
END_CFG

BEGIN_CFG
 Size
    27
 Supercell
        10.599705      0.000000      0.000000
        -4.619203      8.238473      0.000000
         0.000000      0.000000    100.000000
 AtomData:  id type       cartes_x      cartes_y      cartes_z           fx          fy          fz
             1    0       0.937732      0.577268      9.931715    -0.811348   -2.164646    2.193766
             2    1       1.088690      2.461865     11.474415     0.943407   -0.165770   -1.285397
             3    2       1.067183      2.145070      8.235315     0.540144    1.434790    0.297449
             4    0      -0.458800      3.216105      9.831223    -1.733677   -0.116627    0.423775
             5    1      -0.413226      5.046380     11.415275    -0.393411    0.404165   -0.875439
             6    2      -0.538166      5.143601      8.456603     1.850430   -0.626910   -3.628484
             7    0      -2.286777      5.921729      9.657531     0.894626   -0.755474    9.569249
             8    1      -1.859096      7.883617     11.524663    -0.276273   -0.191091   -1.981700
             9    2      -2.102474      7.749703      8.537886     1.197063    2.402834   -3.592508
            10    0       4.587224      0.523595      9.905041    -0.549899   -2.776685    1.406270
            11    1       4.718649      2.179535     11.440764    -0.196120    2.328351   -0.931529
            12    2       4.833288      2.178295      8.322703    -0.619127    1.816627   -1.231421
            13    0       3.068112      3.220548      9.727130    -0.420484   -1.281814    3.517459
            14    1       3.274867      5.178998     11.535799    -0.419720   -0.899340   -1.780962
            15    2       3.183689      5.085670      8.420533    -0.697253    0.430797   -3.151801
            16    0       1.421502      5.956801      9.929545     0.196140    0.661260    1.958172
            17    1       1.579215      7.937043     11.764686     0.194303   -0.647193   -2.667785
            18    2       1.558410      7.793488      8.372687     0.761907   -0.088302    0.986325
            19    0       8.038168      0.301425     10.041883    -2.148129    1.349284   -2.261804
            20    1       8.226823      2.388897     11.304478     0.014738    0.382711    0.070909
            21    2       8.074915      2.313554      8.383313     1.472125   -0.483477   -0.649333
            22    0       6.532728      3.429279      9.705440    -0.554645   -4.910854    6.076386
            23    1       6.638822      5.131332     11.203653     0.216904    0.296155    2.475048
            24    2       6.579963      5.090200      8.451499    -0.743167    1.918719   -8.975701
            25    0       4.906601      5.887355      9.790422    -0.319893    1.352157    4.052425
            26    1       4.959464      7.726303     11.495255     1.569055   -0.425654   -0.234341
            27    2       5.087484      7.762937      8.386802     0.032305    0.755987    0.220970
 Energy
        -23.026213745294
 Feature   mindist	2.081648
END_CFG

BEGIN_CFG
 Size
    27
 Supercell
        10.000788      0.000000      0.000000
        -5.096161      8.049964      0.000000
         0.000000      0.000000    100.000000
 AtomData:  id type       cartes_x      cartes_y      cartes_z           fx          fy          fz
             1    0       0.822297      0.333524     10.077793    -0.649439    1.713328   -2.677834
             2    1       0.595264      2.340625     11.436951     2.504563   -1.351192    5.096440
             3    2       0.745880      2.272049      8.532855    -0.559893   -0.648879   -0.350760
             4    0      -0.902424      3.131306     10.143553    -2.656339   -1.325005   -4.167322
             5    1      -1.063124      4.876780     11.628580    -0.233933    0.624390    0.390920
             6    2      -0.878854      4.812726      8.642985    -1.697204   -0.720188   -5.533898
             7    0      -2.498965      5.926882      9.905501    -2.159327   -2.370549    1.888537
             8    1      -2.764430      7.501287     11.562798     1.677131    1.153147    0.595818
             9    2      -2.655229      7.741662      8.360344     0.859296    0.211917    0.994443
            10    0       4.285606      0.539086     10.050563    -2.257613   -4.057554   -0.138275
            11    1       3.941260      2.274602     11.471096     0.916532    0.425756    3.245572
            12    2       4.043602      2.120843      8.592808     0.543112    2.440697   -2.469490
            13    0       2.332785      3.135355     10.008298     0.440263   -0.825216   -0.101782
            14    1       2.500952      4.956783     11.485833    -3.448243   -1.142361    4.388552
            15    2       2.291906      4.847548      8.581864    -0.313351    0.727715   -2.698966
            16    0       0.488646      5.588668      9.989727     4.095885    3.852579    2.912765
            17    1       0.723258      7.365083     11.567170     0.450195    1.084957   -0.349767
            18    2       0.603185      7.599436      8.336083     0.537344   -0.720815    1.456427
            19    0       7.527079      0.308298      9.953006    -2.084094    1.783791    2.343692
            20    1       7.524568      2.110329     11.624189    -0.685173   -0.021481   -0.438654
            21    2       7.452068      2.275199      8.389822     0.112725   -0.085344    2.068745
            22    0       5.781470      3.164210     10.097009     0.106252   -0.724071   -2.166351
            23    1       5.697289      4.887182     11.663917    -0.057401    1.185703   -1.249640
            24    2       5.590195      4.984650      8.351318     0.181720    0.036673    2.374374
            25    0       3.810167      5.793420     10.122126     5.366886   -0.335113   -4.364363
            26    1       4.168763      7.579903     11.524142    -1.755792    0.205134    2.966251
            27    2       4.017836      7.601586      8.640432     0.765899   -1.118020   -4.015435
 Energy
        -25.573693041997
 Feature   mindist	2.067293
END_CFG

BEGIN_CFG
 Size
    27
 Supercell
         8.885372      0.000000      0.000000
        -4.824144      8.598650      0.000000
         0.000000      0.000000    100.000000
 AtomData:  id type       cartes_x      cartes_y      cartes_z           fx          fy          fz
             1    0       0.732682      0.375315     10.018994    -0.288960    1.725321   -1.806798
             2    1       0.547271      2.432721     11.450227    -0.483667   -0.353176    2.207198
             3    2       0.586175      2.445196      8.551536     0.432636   -0.092084   -0.546631
             4    0      -0.974684      3.539973      9.981344    -0.134553    0.477018    0.410535
             5    1      -0.928929      5.372693     11.772647    -1.088408   -0.389646   -2.605285
             6    2      -1.062493      5.499644      8.332203    -1.135305   -2.059008   -0.326505
             7    0      -2.640616      6.286910      9.952255     2.919949    1.043641    1.142532
             8    1      -2.553512      8.136742     11.535882    -0.050080   -0.506901   -0.207941
             9    2      -2.572798      8.119780      8.294281    -0.870850   -0.346622    0.951928
            10    0       3.603295      0.576953      9.872097     1.761869   -0.298782    1.260666
            11    1       3.599939      2.303677     11.623259     0.065461    0.667283   -1.195805
            12    2       3.433237      2.434725      8.370181     0.169154    0.503862    0.623732
            13    0       2.058226      3.524802     10.150657     0.915663   -1.507995   -4.271119
            14    1       1.881984      5.216644     11.622420     0.323831    1.068506   -0.147901
            15    2       1.991114      5.427269      8.290394    -0.060936   -2.097675    0.158085
            16    0       0.454547      6.105829      9.811344     0.522909    3.800953    3.712565
            17    1       0.393521      8.223336     11.519170    -0.532033   -0.833764   -1.836398
            18    2       0.361986      8.080446      8.256581    -0.055771    0.326965    1.297417
            19    0       6.659224      0.589852      9.874817     0.340423    0.577765    0.349582
            20    1       6.420868      2.510528     11.665190     0.761034   -0.889305   -2.126951
            21    2       6.565916      2.554017      8.227355     0.048495   -0.962258    1.429049
            22    0       5.052269      3.400073      9.884111    -1.435231    0.775066    1.677726
            23    1       4.929218      5.311457     11.665788    -0.548632   -0.996094   -1.895129
            24    2       4.912448      5.278369      8.377458    -0.374860   -0.688609   -0.306376
            25    0       3.411729      6.182899      9.927512    -0.185286    1.717596    2.125322
            26    1       3.301472      8.165890     11.620694    -0.627328   -0.918437   -1.602425
            27    2       3.384412      8.023639      8.282604    -0.389522    0.256382    1.528927
 Energy
        -27.768450956689
 Feature   mindist	2.203799
END_CFG

BEGIN_CFG
 Size
    27
 Supercell
         9.325052      0.000000      0.000000
        -4.760971      8.490274      0.000000
         0.000000      0.000000    100.000000
 AtomData:  id type       cartes_x      cartes_y      cartes_z           fx          fy          fz
             1    0       0.860758      0.522841     10.066736    -2.660612   -1.374733   -0.932600
             2    1       0.561064      2.257250     11.494031     0.784044    1.360949    0.264862
             3    2       0.895224      2.236712      8.281634    -1.034666    0.086948    0.568648
             4    0      -0.810587      3.230901      9.774061     0.816050   -0.406294    5.934820
             5    1      -0.807063      5.141921     11.511042    -0.700067   -1.391685    0.956002
             6    2      -0.948585      5.040909      8.484073    -1.125130    1.684160   -2.375659
             7    0      -2.462802      6.156556     10.192051    -0.440587   -0.100120   -3.656349
             8    1      -2.401489      8.042550     11.695600     0.064947   -0.067956    0.317398
             9    2      -2.487197      8.136053      8.550940     1.258120   -1.795210    0.087856
            10    0       3.964025      0.367658     10.113823    -1.870743    0.959115   -4.400431
            11    1       3.956885      2.180166     11.570212    -0.856331    0.893298   -0.212344
            12    2       3.854657      2.309207      8.258042     0.113071   -0.252365    2.497364
            13    0       2.197852      3.260370      9.945552     1.774150   -1.196592    2.206573
            14    1       2.393609      5.013907     11.741959    -1.538344   -0.203391   -1.768313
            15    2       2.144773      5.080590      8.541684     0.445386    0.089148   -1.774310
            16    0       0.575395      5.962790      9.962188     2.475337   -0.008443    3.888054
            17    1       0.622288      7.947075     11.435076     1.908980   -1.193360    2.976882
            18    2       0.736761      7.666335      8.579487    -1.353884    2.153689   -3.679141
            19    0       7.050440      0.354221      9.922078    -1.693814    1.306682    4.458256
            20    1       6.970634      2.434032     11.630373     0.965973   -1.183100   -1.739878
            21    2       6.932565      2.305148      8.536287    -0.193610   -1.233123   -4.593684
            22    0       5.465489      3.142488      9.995850    -2.106024    2.297594    0.463300
            23    1       5.404535      5.008733     11.660017    -0.250032   -0.204347   -0.661583
            24    2       5.111940      5.332111      8.412613     2.708383   -1.475631    0.632579
            25    0       3.770918      5.914794     10.063733    -1.165047    3.072472    1.846463
            26    1       3.688661      8.044324     11.655077     1.258496   -1.061889   -1.634041
            27    2       3.673489      7.932104      8.449237     2.415957   -0.755816    0.329276
 Energy
        -26.731633385539
 Feature   mindist	2.142334
END_CFG

BEGIN_CFG
 Size
    27
 Supercell
         8.993247      0.000000      0.000000
        -4.924127      8.158053      0.000000
         0.000000      0.000000    100.000000
 AtomData:  id type       cartes_x      cartes_y      cartes_z           fx          fy          fz
             1    0       0.686000      0.419657      9.987410    -0.452402    0.955876    0.826580
             2    1       0.429347      2.282825     11.410714     1.021055   -1.067792    3.153824
             3    2       0.571841      2.272453      8.477412     0.679421   -0.369233   -1.259371
             4    0      -0.993989      3.119413      9.935789    -0.691651    0.881747    0.264331
             5    1      -1.081406      4.843908     11.605784     0.492406    0.927846   -0.795324
             6    2      -0.981651      4.972424      8.507310    -0.429337    0.423587   -0.773028
             7    0      -2.604631      5.874763     10.035769     1.266164    0.215134    0.235634
             8    1      -2.970890      7.712640     11.753589     2.137211   -0.241951   -1.572632
             9    2      -2.712957      7.563627      8.560854     0.103150    0.940050   -2.870092
            10    0       3.645156      0.513909      9.920647     0.997946   -2.269476    5.607641
            11    1       3.499123      2.337772     11.762290     0.985145   -1.063497   -1.607972
            12    2       3.481737      2.163488      8.495697     0.671866    0.984091   -2.163368
            13    0       2.084874      3.075261     10.074188    -1.501628    3.295234   -0.887928
            14    1       1.903887      5.020171     11.622651    -0.153128   -1.622069    0.220130
            15    2       1.921396      5.092281      8.485133    -0.517395   -2.338549   -0.684988
            16    0       0.515237      5.948147     10.040586    -2.884891   -1.909800   -0.959615
            17    1       0.467308      7.605065     11.457603    -3.250350    0.993165    3.793539
            18    2       0.340263      7.669317      8.447083     0.302289    0.837215    0.068186
            19    0       6.776084      0.403193     10.175058     1.287331    1.706157   -4.989982
            20    1       6.591778      2.212174     11.712887    -0.494485   -0.087402   -1.261110
            21    2       6.541527      2.270636      8.237710    -0.105975   -0.864907    1.810589
            22    0       5.056182      3.094289      9.963814    -0.212143    0.837467    0.939786
            23    1       5.049936      4.997633     11.494998    -2.545849   -1.140904    0.788322
            24    2       4.827818      4.967951      8.383552    -0.011690   -0.098986    1.431118
            25    0       3.206565      5.963794     10.027831     5.218875    0.374825   -0.089042
            26    1       3.341249      7.605905     11.723122    -0.307402    0.320065   -0.810189
            27    2       3.423626      7.754858      8.306117    -1.604532   -0.617893    1.584959
 Energy
        -27.584490225583
 Feature   mindist	2.115764
END_CFG

BEGIN_CFG
 Size
    27
 Supercell
        10.058075      0.000000      0.000000
        -4.768795      8.009276      0.000000
         0.000000      0.000000    100.000000
 AtomData:  id type       cartes_x      cartes_y      cartes_z           fx          fy          fz
             1    0       0.932316      0.335092     10.116996    -0.575712    1.696682    0.827882
             2    1       0.910906      2.180043     11.738731     0.541072   -0.259250   -1.569534
             3    2       0.952481      2.309480      8.576505    -1.144988   -1.274347   -0.520321
             4    0      -0.780293      3.113363     10.176618    -0.276133   -4.110089   -3.944221
             5    1      -0.449082      4.614639     11.597321    -1.283172    4.043628    2.393421
             6    2      -0.713399      4.725583      8.261269     0.085253    1.267703    2.853429
             7    0      -2.319436      5.753977     10.121202     1.157844   -3.348744   -1.920707
             8    1      -2.169764      7.469682     11.500410     0.580786    1.437622    2.146663
             9    2      -2.210508      7.493265      8.560696    -1.502638    0.079543   -3.346028
            10    0       4.172567      0.466143      9.833257     1.564912   -2.327348    6.733309
            11    1       4.185391      2.112103     11.598744     0.887008    0.416412   -1.061009
            12    2       4.343539      2.279524      8.592728     0.212216    0.304456   -5.122796
            13    0       2.668409      2.913023      9.942637    -0.929448    2.262535    4.674023
            14    1       2.686674      4.939254     11.568832     0.063004   -1.251506   -0.108490
            15    2       2.794290      4.767312      8.503370    -0.429434    1.179841    0.503482
            16    0       0.978457      5.718851     10.057744     0.608003   -0.444150   -2.350758
            17    1       1.018107      7.613577     11.629370     0.254861    0.113887   -2.087606
            18    2       1.006048      7.487063      8.402186     0.998581   -0.007765   -0.007192
            19    0       7.676196      0.444788      9.960933    -4.372006   -1.274568    6.181212
            20    1       7.445680      2.231440     11.655399     1.410514   -0.501425   -0.473645
            21    2       7.614959      2.022784      8.431459     0.643138    2.333525    0.064833
            22    0       6.040560      3.060028     10.018734    -1.009042   -0.731788    1.640349
            23    1       6.129740      4.739167     11.711272    -0.458802    1.194724   -0.926030
            24    2       6.120939      4.806342      8.451603    -0.210590    1.282994    1.267086
            25    0       4.456517      5.757249     10.134371    -0.050043   -1.295279   -0.354171
            26    1       4.427026      7.511212     11.712567     0.328473    0.542482   -0.598145
            27    2       4.415360      7.674185      8.771373     2.906342   -1.329778   -4.895033
 Energy
        -26.278668095104
 Feature   mindist	2.072970
END_CFG

BEGIN_CFG
 Size
    27
 Supercell
         8.834049      0.000000      0.000000
        -4.832366      8.519716      0.000000
         0.000000      0.000000    100.000000
 AtomData:  id type       cartes_x      cartes_y      cartes_z           fx          fy          fz
             1    0       0.668616      0.500330      9.761459     1.136640   -0.019774    6.588920
             2    1       0.777515      2.272844     11.642795    -2.876155   -1.403142   -0.321999
             3    2       0.642946      2.369197      8.419995    -1.414505   -0.725667   -3.592870
             4    0      -0.920155      3.221485      9.916475     1.188612    1.866056    2.030604
             5    1      -0.941129      5.136925     11.696321    -1.023455   -1.607519   -0.011258
             6    2      -0.985375      5.213947      8.354599    -1.996831   -1.181043    1.380242
             7    0      -2.516554      6.148400     10.291087     3.465989    0.567494  -11.256612
             8    1      -2.429143      7.965472     11.532917    -3.833371    1.144183    4.569011
             9    2      -2.639188      7.975807      8.440897     0.807554   -0.969551    0.007368
            10    0       3.540818      0.528561     10.065780     2.279033   -0.620710   -4.430936
            11    1       3.435228      2.407308     11.545218     0.972369    0.133400    0.088819
            12    2       3.574907      2.114466      8.423797    -1.346983    1.571120   -0.645460
            13    0       1.833771      3.163434      9.996921     5.054129    3.488392   -0.696413
            14    1       2.031895      5.240124     11.533883    -1.798034   -2.063573    1.432213
            15    2       1.903606      5.029961      8.337251    -0.060203   -0.207276    1.828778
            16    0       0.378034      5.954102     10.023887     2.485152    3.233031   -1.800950
            17    1       0.187556      8.012229     11.441733     1.831731   -0.248808    0.901950
            18    2       0.488158      8.019386      8.303678    -2.704500   -1.462438    0.147304
            19    0       6.490417      0.526591      9.810610     2.829178   -0.441816    4.759387
            20    1       6.475375      2.374657     11.538029    -1.034224   -0.642208   -1.464144
            21    2       6.571018      2.250023      8.345835    -1.425716    1.051099   -1.297078
            22    0       4.907110      3.395777      9.861489     1.446478   -1.387295    2.710318
            23    1       4.915214      5.309914     11.465102    -2.713904   -3.014051    5.484631