BEGIN_CFG
 Size
    27
 Supercell
         9.811129      0.000000      0.000000
        -4.528778      8.422697      0.000000
         0.000000      0.000000    100.000000
 AtomData:  id type       cartes_x      cartes_y      cartes_z           fx          fy          fz
             1    0       0.834730      0.292830     10.077259    -0.444844    2.844957    2.108915
             2    1       0.871711      2.349227     11.648101     0.117940   -0.904126   -0.763375
             3    2       0.865456      2.264519      8.181936     0.018534    0.008993    3.109704
             4    0      -0.774806      3.168834     10.127563     1.819703    1.967719   -2.869260
             5    1      -0.620704      5.193335     11.812201    -0.150722   -0.838025   -1.814722
             6    2      -0.512186      5.059762      8.407740    -0.107350    0.025879    2.295529
             7    0      -2.186961      6.011829     10.014622    -0.033350   -0.977002    1.039441
             8    1      -1.922304      7.881238     11.575413    -1.573908   -0.522797    1.055616
             9    2      -2.159878      7.893049      8.629206     0.394407   -0.514862   -3.124195
            10    0       4.028896      0.322559     10.046703     1.381384    1.676995   -0.968510
            11    1       4.124323      2.250785     11.556262    -0.689053   -0.222949    0.209300
            12    2       4.186924      2.162178      8.427343    -0.458752    0.424706    1.591929
            13    0       2.428837      3.277672     10.026798     1.308037   -1.700436   -0.636802
            14    1       2.790507      5.170319     11.555502    -0.128715   -0.350408    0.782733
            15    2       2.854675      4.963610      8.503569    -0.843055    1.650463    0.138209
            16    0       1.022120      6.047151     10.200947     0.453639   -0.283196   -2.554802
            17    1       1.055399      8.004600     11.587650     1.452299   -0.098403    0.013211
            18    2       1.291580      7.837930      8.537269    -1.615503   -0.987788   -1.810884
            19    0       7.372551      0.376779      9.859357     0.142203    2.174600    5.337106
            20    1       7.590425      2.226121     11.573226    -1.759703   -1.235665    0.317610
            21    2       7.522201      2.405063      8.322334    -0.948482   -0.458201    1.985874
            22    0       5.799192      3.110272     10.101927     0.898064    1.697912   -1.995065
            23    1       6.102830      5.168926     11.818064    -0.493696   -0.466742   -2.608580
            24    2       5.775326      5.127533      8.381657     1.604784   -0.778845    1.617037
            25    0       4.490175      6.136916     10.045958    -1.046229   -0.566449    0.342055
            26    1       4.362491      7.858185     11.652295     0.201917    0.658968   -1.220075
            27    2       4.503328      8.129866      8.471545     0.500450   -2.225298   -1.578002
 Energy
        -26.995828310659
 Feature   mindist	2.251504
END_CFG

BEGIN_CFG
 Size
    27
 Supercell
         9.261324      0.000000      0.000000
        -4.267257      7.427684      0.000000
         0.000000      0.000000    100.000000
 AtomData:  id type       cartes_x      cartes_y      cartes_z           fx          fy          fz
             1    0       0.603600      0.378436      9.818912     5.911949   -0.354309    5.710761
             2    1       0.919118      2.022014     11.549525     0.615750    0.065282   -1.475471
             3    2       1.031287      1.970531      8.500177    -2.914399    0.644991   -7.903067
             4    0      -0.514542      2.934932      9.887906    -1.027657   -2.270884    3.290602
             5    1      -0.528159      4.562625     11.509520     0.912585    0.007399    1.207423
             6    2      -0.389083      4.442743      8.215657     0.229368    1.459459    1.042281
             7    0      -1.947739      5.209026      9.903048    -1.033779    2.515768   -2.085917
             8    1      -1.787272      7.049250     11.810418    -0.047065    0.113613   -2.737780
             9    2      -1.958865      6.966532      8.382807     0.899585    0.695908    0.500501
            10    0       4.092906      0.586324      9.934783    -2.837818   -6.762446   -0.772706
            11    1       4.102073      2.178888     11.419768    -1.456453    1.057323    0.916181
            12    2       4.125754      2.005028      8.189581    -1.204236    0.682714   -0.659579
            13    0       2.471316      2.792170      9.731428     2.448405    0.591305    6.218514
            14    1       2.598094      4.478170     11.434652     1.713301   -0.026459   -0.139805
            15    2       2.487757      4.503605      8.222612     0.882307    0.733318    0.491215
            16    0       1.108537      5.392789     10.066836    -1.313135   -5.725606   -4.206166
            17    1       1.170379      6.912559     11.455612     0.869329    4.268135    2.759434
            18    2       1.138680      6.713597      8.365652     0.656821    4.596171   -0.165399
            19    0       7.045643      0.535543      9.971419    -0.274865   -7.987260   -3.279242
            20    1       7.077599      1.859458     11.537591     0.511575    4.600274    0.803352
            21    2       7.055590      2.150783      8.467976     1.961333   -0.041653   -3.918677
            22    0       5.549561      2.723859      9.827910     1.165780    4.040097    2.150946
            23    1       5.774182      4.486751     11.302562    -0.543023   -0.566786    1.777419
            24    2       5.547790      4.527753      8.277741     3.646847   -1.972514   -2.072067
            25    0       4.337735      5.348168      9.700106    -5.512110   -0.239815    4.664545
            26    1       4.259426      6.992611     11.466857    -0.940588   -1.096520   -0.444603
            27    2       4.420701      6.996631      8.241665    -3.319807    0.972496   -1.672694
 Energy
        -21.367749982517
 Feature   mindist	2.039715
END_CFG

BEGIN_CFG
 Size
    27
 Supercell
         8.913963      0.000000      0.000000
        -4.676675      8.108979      0.000000
         0.000000      0.000000    100.000000
 AtomData:  id type       cartes_x      cartes_y      cartes_z           fx          fy          fz
             1    0       0.773843      0.456315     10.051860     1.386325   -0.541320   -0.845041
             2    1       0.795595      2.346022     11.551085    -3.380672   -2.976963    2.669598
             3    2       0.895304      2.108362      8.558392    -4.716999   -0.948649   -3.827116
             4    0      -0.748144      3.141995     10.088370    -0.849947    0.994665   -3.641770
             5    1      -0.903586      5.065448     11.611824    -0.697762   -1.741124    0.012204
             6    2      -0.939228      5.048453      8.355102     0.713574   -1.774396    0.996396
             7    0      -2.436243      5.684958      9.937692     1.260344    3.286989   -0.434452
             8    1      -2.448838      7.566266     11.529709    -0.346569   -0.673654    1.767932
             9    2      -2.323933      7.602886      8.544140     0.035123    0.415188   -0.072598
            10    0       3.823428      0.440483     10.246936    -4.059435    1.845398   -8.965783
            11    1       3.479483      2.265773     11.610645     1.481015    0.521700    0.703369
            12    2       3.809058      2.149223      8.358423    -2.050735   -0.387767    1.274406
            13    0       1.987698      3.017201      9.979008     8.314074    4.736566    2.197623
            14    1       1.987656      4.772704     11.756349     0.580599    1.095932   -2.284649
            15    2       1.885325      4.967747      8.634094     0.735964   -0.847797   -3.746932
            16    0       0.485074      5.897088     10.071172     0.874429    1.436041   -0.100541
            17    1       0.344132      7.720394     11.578873     4.465014   -1.939860    4.703061
            18    2       0.569718      7.697408      8.243651     0.025828   -0.898437    2.272236
            19    0       6.690563      0.388587     10.028070    -0.672045   -0.010539   -2.090079
            20    1       6.670244      2.206521     11.490126    -1.048564    0.256555    1.727334
            21    2       6.506181      2.125834      8.474892     1.730761    1.163993   -0.321843
            22    0       5.016074      3.242788      9.930389     0.976718   -1.647259    1.173858
            23    1       5.141881      4.927138     11.456238    -2.009801   -0.303095    1.457818
            24    2       4.987681      4.981438      8.260052    -0.463861   -0.619350    0.670650
            25    0       3.546828      5.830474      9.937225    -0.199665   -0.846774    1.133858
            26    1       3.568277      7.527700     11.391320    -0.865758    0.543012    4.557977
            27    2       3.639887      7.684113      8.460533    -1.217955   -0.139053   -0.987516
 Energy
        -25.521558575571
 Feature   mindist	1.973607
END_CFG

BEGIN_CFG
 Size
    27
 Supercell
         9.351682      0.000000      0.000000
        -5.103549      8.335490      0.000000
         0.000000      0.000000    100.000000
 AtomData:  id type       cartes_x      cartes_y      cartes_z           fx          fy          fz
             1    0       0.678606      0.505878     10.027677    -2.144362   -3.151617    0.470086
             2    1       0.481916      2.140938     11.528789    -0.111158    1.918467    0.492546
             3    2       0.454829      2.068532      8.403329     0.349812    1.793571   -1.354953
             4    0      -0.975682      3.246714      9.872850    -0.962244   -0.517096    3.662678
             5    1      -1.210689      5.069730     11.675298    -0.700671   -0.698748   -1.526200
             6    2      -1.191026      5.138159      8.489096    -0.014308   -0.780672   -3.421903
             7    0      -2.710628      6.051357      9.920210    -1.055300    0.916062    3.665307
             8    1      -2.863024      7.917167     11.670597     0.408212   -0.560274   -1.875542
             9    2      -3.140441      7.946379      8.380857     2.670824   -0.686271    0.238734
            10    0       3.891083      0.389109     10.002237    -3.710331    1.959586    2.521892
            11    1       3.761461      2.419602     11.569193    -0.975033   -1.001688   -0.914490
            12    2       3.536077      2.315292      8.486663     1.485731   -0.330548   -0.700032
            13    0       1.927674      3.111136      9.934575     1.452285    2.278218    1.545377
            14    1       2.015956      5.092410     11.593169    -0.831405   -1.295336   -0.871216
            15    2       1.892742      5.272168      8.384919     0.015350   -1.800619    0.424989
            16    0       0.271693      5.785826     10.023244     2.428085    4.119246    1.810707
            17    1       0.270694      7.858843     11.686853     0.719536   -0.715770   -2.178688
            18    2       0.116288      7.864939      8.498429     1.707466   -1.554387   -1.410075
            19    0       6.933389      0.464585      9.872833    -1.381509    0.528971    2.692151
            20    1       6.935431      2.332170     11.590299    -0.945956   -0.162710   -1.826037
            21    2       6.797290      2.375118      8.401489    -0.710252   -0.116898   -0.414371
            22    0       5.219565      3.366315     10.002040     0.354952   -3.098373   -1.808225
            23    1       5.099612      4.970668     11.440699     0.483917    2.341467    2.526654
            24    2       5.082691      5.143152      8.455920    -0.104418   -0.371151   -1.186528
            25    0       3.514648      5.953391     10.004407    -0.651522    1.651130   -0.803917
            26    1       3.226166      7.871724     11.576044     1.310198   -0.366584   -1.058322
            27    2       3.311617      7.828393      8.313146     0.912101   -0.297976    1.299377
 Energy
        -28.223513586626
 Feature   mindist	2.158258
END_CFG

BEGIN_CFG
 Size
    27
 Supercell
        10.797209      0.000000      0.000000
        -4.724135      7.946282      0.000000
         0.000000      0.000000    100.000000
 AtomData:  id type       cartes_x      cartes_y      cartes_z           fx          fy          fz
             1    0       0.896359      0.494827     10.001327     0.514570   -1.184349    0.296548
             2    1       1.018634      2.216786     11.753469    -0.485524    0.393564   -1.908195
             3    2       1.055282      2.174109      8.371434     0.136503    0.796658    0.534402
             4    0      -0.716972      2.966679      9.977771    -0.222464   -0.688753    2.616825
             5    1      -0.605869      4.883323     11.585420    -0.148043    0.051488   -1.671377
             6    2      -0.533942      4.666513      8.481862    -0.131385    2.058505    0.520486
             7    0      -2.440640      5.892343      9.909433     1.326339   -3.342856    1.209339
             8    1      -2.114877      7.556800     11.509138     0.002042    0.439300    0.406602
             9    2      -1.922513      7.573711      8.413931    -0.852571    0.849035   -0.398991
            10    0       4.451619      0.372571     10.013261     1.183062    0.716959    0.052512
            11    1       4.724186      2.348707     11.600354    -0.911416   -0.650516   -1.350918
            12    2       4.551805      2.325860      8.383606     1.170675   -1.526563    0.334902
            13    0       2.984069      3.168479      9.840588    -0.793338   -2.559919    3.165246
            14    1       3.219601      4.801688     11.693438     0.006260    0.947453   -2.252742
            15    2       3.150235      4.703878      8.258718    -0.288821    2.957716    0.398676
            16    0       1.365546      5.655601     10.099839     0.091797   -0.726760   -1.853274
            17    1       1.539054      7.379066     11.684509    -0.260416    1.249119   -1.507358
            18    2       1.750117      7.541867      8.248626    -0.514699   -0.272974    2.211285
            19    0       8.118971      0.541420      9.891976     0.129221   -4.034676    3.179900
            20    1       8.119731      2.187483     11.694194     0.088060    0.660475   -2.131674
            21    2       8.166358      2.197376      8.529998     0.241413    2.596322   -1.413008
            22    0       6.330960      3.088144      9.997175     1.466178   -0.164902   -0.332755
            23    1       6.666304      4.881196     11.577666    -0.109899    0.643643   -1.553115
            24    2       6.847457      4.883033      8.246531    -0.903820   -0.034786    1.342778
            25    0       4.940337      5.640733      9.847648     0.330991   -1.281933    2.310390
            26    1       5.194384      7.475652     11.479691    -0.496001    0.306045   -0.857372
            27    2       5.253368      7.423117      8.477247    -0.568714    1.802706   -1.349111
 Energy
        -23.898979537079
 Feature   mindist	2.144626
END_CFG

BEGIN_CFG
 Size
    27
 Supercell
         9.458853      0.000000      0.000000
        -4.708428      8.432709      0.000000
         0.000000      0.000000    100.000000
 AtomData:  id type       cartes_x      cartes_y      cartes_z           fx          fy          fz
             1    0       0.747912      0.335331      9.985922    -0.466435    0.524488    1.462996
             2    1       0.968570      2.144050     11.575163    -0.953925    1.132023   -0.279415
             3    2       0.623322      2.309623      8.634218     1.220144    0.059600   -3.420335
             4    0      -0.764741      3.351599     10.070719    -1.678635   -1.335357    1.365937
             5    1      -0.743381      5.262466     11.582637     0.503256   -0.955546   -0.206733
             6    2      -0.943572      5.142425      8.397454     2.042536   -1.748468   -1.328273
             7    0      -2.274576      5.920075      9.946781    -3.306406    2.809805    2.447337
             8    1      -2.294347      8.074874     11.498534    -1.619626   -2.751982    2.063705
             9    2      -2.467729      7.800636      8.456886     0.999992    0.342440   -0.265759
            10    0       3.833859      0.350003     10.065766     2.207214    1.843805   -2.920355
            11    1       3.899612      2.372613     11.529282     0.276910   -0.193238   -0.316922
            12    2       3.812890      2.195141      8.435147     0.890658    0.300042    0.354564
            13    0       2.380889      3.316834      9.934837    -0.192942   -1.422235    1.327419
            14    1       2.382479      5.146240     11.405447    -0.848421   -0.497901    1.911754
            15    2       2.408499      5.106276      8.423219    -0.098690   -0.357664   -2.270960
            16    0       0.766844      5.883629      9.852925    -0.028345    2.634120    1.498850
            17    1       0.864384      8.097374     11.693632    -0.404818   -0.458727   -1.565829
            18    2       0.657895      7.895048      8.370019     0.856508   -0.004100    1.546156
            19    0       7.137453      0.522376      9.952211    -1.542248   -1.915790   -0.292914
            20    1       7.104485      2.201303     11.632957     0.009668    1.526372   -1.140663
            21    2       6.914977      2.246220      8.439095     1.484481    1.304265   -0.125059
            22    0       5.538360      3.330856      9.996687    -0.996181   -2.458282    1.154829
            23    1       5.442937      5.152916     11.541317     0.726540    0.176253   -0.069560
            24    2       5.603403      4.977655      8.420176    -0.855723    1.309041   -0.033895
            25    0       3.892156      6.047697      9.974535     1.539317    1.164675   -1.847788
            26    1       3.745207      7.922672     11.558973     1.503249   -0.516544   -0.381294
            27    2       4.079509      7.959479      8.306368    -1.268078   -0.511096    1.332210
 Energy
        -28.680325985177
 Feature   mindist	2.137670
END_CFG

BEGIN_CFG
 Size
    27
 Supercell
         8.863292      0.000000      0.000000
        -4.973175      7.855757      0.000000
         0.000000      0.000000    100.000000
 AtomData:  id type       cartes_x      cartes_y      cartes_z           fx          fy          fz
             1    0       0.935557      0.336582      9.880464    -6.288171    1.175003    4.936990
             2    1       0.435061      2.051142     11.744461     0.727998   -0.169900   -1.665637
             3    2       0.588919      2.248580      8.644688     1.439642   -0.167389   -3.972709
             4    0      -0.987700      3.042759     10.003546     0.590486    0.782691    2.963141
             5    1      -0.842952      4.878777     11.528589    -3.826981   -1.941675    2.777942
             6    2      -1.006881      4.694349      8.352384    -0.428290    1.020490    1.491120
             7    0      -2.566304      5.702893     10.042937     0.884492   -1.554607   -0.384303
             8    1      -2.715697      7.461882     11.613229     0.546348   -0.705391   -0.134773
             9    2      -2.675526      7.371204      8.465006     2.157206   -0.193783   -2.135276
            10    0       3.694007      0.557356     10.078109     1.716732   -4.670056    0.693791
            11    1       3.607408      2.170680     11.665310    -0.691434    0.827563    1.226026
            12    2       3.601578      2.035371      8.550135    -2.186044    1.855358   -1.692948
            13    0       2.068507      3.040177     10.210141    -1.135154   -1.591046   -5.107770
            14    1       1.865228      4.742288     11.441912     0.628241    1.863514    6.608653
            15    2       2.013376      4.837142      8.447524    -1.561308   -1.069519    1.095385
            16    0       0.345008      5.751139     10.127979     2.559766    0.309920   -5.906362
            17    1       0.220105      7.519179     11.739368     0.130395   -0.185653   -1.181001
            18    2       0.401489      7.370139      8.507661    -2.015879    0.821219   -0.009504
            19    0       6.726434      0.515132     10.016741    -0.187299   -1.316212    0.196739
            20    1       6.498778      2.006389     11.713321    -0.839511    2.242436   -1.098199
            21    2       6.453250      2.234314      8.430417    -0.325800   -0.434948   -0.079299
            22    0       4.881820      3.031708      9.998550     3.740150    0.481185    2.588099
            23    1       4.915321      4.753761     11.722348    -0.605386    0.414672   -1.540070
            24    2       4.843738      4.615237      8.384168    -0.316858    1.997497    0.966043
            25    0       3.324711      5.725738     10.067117     2.354225   -0.354969   -1.319804
            26    1       3.129015      7.462285     11.664368     1.466461    0.035587   -1.081157
            27    2       3.098009      7.367523      8.255539     1.465974    0.528016    1.764884
 Energy
        -25.858164989625
 Feature   mindist	2.033218
END_CFG

BEGIN_CFG
 Size
    27
 Supercell
         9.662664      0.000000      0.000000
        -4.857952      8.334840      0.000000
         0.000000      0.000000    100.000000
 AtomData:  id type       cartes_x      cartes_y      cartes_z           fx          fy          fz
             1    0       0.819565      0.696350     10.058111    -0.333377   -6.789665   -1.765819
             2    1       0.637674      2.248270     11.503687     1.193977    3.516071    2.533452
             3    2       0.896866      2.248773      8.417598    -0.490770    2.490417    0.091232
             4    0      -0.747145      3.404181     10.010258    -1.186867   -2.926991   -1.766869
             5    1      -0.737582      5.198230     11.473511    -0.869856   -0.980025    2.784365
             6    2      -0.942483      5.080445      8.373116     0.661703    0.565513    0.703575
             7    0      -2.456163      5.952597     10.036444    -0.215485    0.747071   -1.433281
             8    1      -2.362925      7.756964     11.689804    -0.341251    1.151163   -1.739173
             9    2      -2.417618      7.722861      8.458122    -0.360415    1.698060    0.704988
            10    0       3.994555      0.586399      9.995415     0.411032   -4.136368    1.189721
            11    1       4.123343      2.140924     11.560969    -1.760645    1.890341    1.730861
            12    2       4.091721      2.354525      8.556876    -1.229616    0.825275   -1.510688
            13    0       2.356846      3.444292      9.991172     0.683236   -5.987606    0.783498
            14    1       2.425056      5.025985     11.503097    -0.261081    1.886291    1.945397
            15    2       2.440405      5.035261      8.488414     0.112887    2.405722   -0.574782
            16    0       0.751384      5.987871     10.020821     1.118654    1.216692   -2.095119
            17    1       0.766385      7.732455     11.712223    -0.709503    0.537858   -1.876243
            18    2       0.882212      7.975847      8.553963    -3.033761   -1.659400   -2.425878
            19    0       7.080396      0.358992      9.987445     3.971264    1.022461    4.147962
            20    1       7.149727      2.344588     11.542481     0.882645   -0.361983    0.195430
            21    2       7.235779      2.172263      8.561525    -0.496544    1.477878   -0.534521
            22    0       5.517725      3.198252     10.117960     2.054084    1.844187   -2.486012
            23    1       5.513611      5.217162     11.572225     1.797903   -1.755315    2.029822
            24    2       5.559472      5.301353      8.287778     0.551377   -1.157092    2.224259
            25    0       4.127040      6.066360     10.119629    -3.102820   -0.128766   -5.032211
            26    1       3.871077      7.769285     11.603974     0.618020    1.931014   -0.283045
            27    2       3.885998      7.802877      8.321409     0.335210    0.677197    2.459080
 Energy
        -26.192248537673
 Feature   mindist	2.089640
END_CFG

BEGIN_CFG
 Size
    27
 Supercell
         9.491578      0.000000      0.000000
        -4.892339      8.241594      0.000000
         0.000000      0.000000    100.000000
 AtomData:  id type       cartes_x      cartes_y      cartes_z           fx          fy          fz
             1    0       0.898370      0.461819      9.960415    -2.462104   -0.530878    1.125638
             2    1       0.830785      2.198414     11.651830    -0.131618    0.207354   -1.523425
             3    2       0.777482      2.259491      8.331010     0.058749    0.039020    1.490573
             4    0      -0.812607      3.103453     10.054231     0.322068   -0.085290   -0.187867
             5    1      -0.812239      4.940130     11.655342    -1.022250    0.151110   -1.474114
             6    2      -0.854723      5.006229      8.549804     0.400163   -1.402720   -3.348289
             7    0      -2.501665      5.774783      9.850465     0.805367    2.619630    4.888811
             8    1      -2.612824      7.791007     11.605687     1.225519   -1.028921   -1.370181
             9    2      -2.507542      7.696898      8.481512     1.175448    0.382449   -1.317848
            10    0       4.010079      0.493535     10.037386    -1.747727   -1.816473    2.535212
            11    1       3.990130      2.142051     11.590435    -0.065637    1.715374   -0.237682
            12    2       4.004984      2.194774      8.392122     0.235313    0.298294    0.418218
            13    0       2.421911      3.060395      9.964607    -0.747005    0.300304    1.953417
            14    1       2.109327      4.982956     11.668990     1.780152   -0.805573   -1.257396
            15    2       2.320680      4.812662      8.481394    -0.104274    1.252895   -1.051444
            16    0       0.728656      5.812950     10.010837    -0.561225    0.428059    4.424422
            17    1       0.678443      7.839109     11.632894     0.313372   -0.819325   -0.917338
            18    2       0.689621      7.753356      8.792289    -0.069227   -0.840091   -8.212462
            19    0       7.326094      0.402488      9.871968    -2.306700    0.764751    4.955257
            20    1       7.013866      1.971919     11.461523     1.004395    1.851291    1.761860
            21    2       7.102797      2.193918      8.461243     0.549036    0.902463   -1.596237
            22    0       5.578782      3.107302      9.994548    -1.631301   -0.167323   -1.051069
            23    1       5.595545      5.002727     11.426144    -1.254718   -0.478378    1.809284
            24    2       5.296592      5.006917      8.411500     0.590197   -1.074708   -1.029195
            25    0       3.797717      5.895130      9.996768     0.044881    0.122115    0.855159
            26    1       3.672986      7.742128     11.568023     2.229646   -0.471916   -0.771820
            27    2       3.840430      7.793341      8.390899     1.369484   -1.513515   -0.871486
 Energy
        -28.287329084464
 Feature   mindist	2.212704
END_CFG

BEGIN_CFG
 Size
    27
 Supercell
         9.500453      0.000000      0.000000
        -5.171381      8.653364      0.000000
         0.000000      0.000000    100.000000
 AtomData:  id type       cartes_x      cartes_y      cartes_z           fx          fy          fz
             1    0       0.777413      0.456011      9.815510    -1.034730    0.153466    2.775194
             2    1       0.763434      2.313579     11.554719    -0.302782    0.396024   -2.384282
             3    2       0.724671      2.336235      8.436999    -0.259023    0.648670   -2.505025
             4    0      -0.937425      3.315427      9.839471     0.332704    0.278583    2.565074
             5    1      -0.929367      5.267717     11.417268    -1.879552   -0.610654   -0.310191
             6    2      -1.038474      5.237306      8.304888     0.006037   -0.108283   -0.239181
             7    0      -2.706307      6.289631      9.750411     0.342126   -0.632433    4.050534
             8    1      -2.834664      8.333003     11.377930    -0.379689   -2.176697    1.039364
             9    2      -2.857715      8.172740      8.294716     0.689797    0.089506   -0.830216
            10    0       3.922261      0.320360      9.933513     0.412114    3.221553   -3.512135
            11    1       3.870834      2.436863     11.542367    -0.165210   -0.409298   -2.208429
            12    2       3.737837      2.381781      8.329435     0.762427   -0.780208    0.269903
            13    0       2.270108      3.447745      9.825631    -0.294451   -0.516146    2.850217
            14    1       2.072856      5.352852     11.398654     0.238197   -0.907129    0.640178
            15    2       2.189533      5.254035      8.204072    -0.498084    0.470961    1.732229
            16    0       0.471445      6.198609      9.914520     1.369880    1.589950   -2.666252
            17    1       0.301089      8.278377     11.429399     1.147702   -1.460740    0.466553
            18    2       0.427038      8.058202      8.247204    -0.027353    0.337533    2.031001
            19    0       7.216283      0.520139      9.893657    -1.476166   -0.802549   -0.283524
            20    1       7.068112      2.265238     11.538008    -0.438942    1.116212   -1.887608
            21    2       7.054867      2.345420      8.265636    -0.274128    0.106996    0.373679
            22    0       5.393286      3.344491      9.806610     0.366463   -0.954021    3.535935
            23    1       5.266990      5.244624     11.508895     0.472846   -0.024391   -1.577126