BEGIN_CFG
 Size
    27
 Supercell
         9.613224      0.000000      0.000000
        -4.637458      7.752556      0.000000
         0.000000      0.000000    100.000000
 AtomData:  id type       cartes_x      cartes_y      cartes_z           fx          fy          fz
             1    0       0.825537      0.487399     10.102543    -2.113147   -1.513816   -3.657035
             2    1       0.693490      2.082861     11.646984    -0.098779    1.949376   -0.195002
             3    2       0.808450      2.151917      8.429152    -0.298272    0.272848    0.124527
             4    0      -0.863240      3.025601      9.858801     0.946391    0.028643    4.395536
             5    1      -0.869228      4.670021     11.688911     0.685918    0.199620   -1.792232
             6    2      -0.735608      4.858762      8.332916    -0.202891   -0.151998    1.073428
             7    0      -2.319289      5.628957      9.999927    -1.912345   -1.771174   -0.269676
             8    1      -2.308835      7.300381     11.579488     0.236934    0.270193    0.738931
             9    2      -2.542598      7.350970      8.362369     1.280073   -0.166404    1.114129
            10    0       3.772434      0.475552      9.988768     1.600255   -2.786476   -0.698996
            11    1       3.883028      2.159234     11.616393     1.133653    0.654547   -0.643413
            12    2       3.916927      2.000593      8.332876     0.033526    2.173096    0.774897
            13    0       2.315069      2.949699     10.125710     0.255855    0.886278   -2.309819
            14    1       2.415434      4.801979     11.642582    -0.129182   -0.893391    0.249388
            15    2       2.297066      4.714169      8.340727     0.590043   -0.791904    1.520418
            16    0       0.870722      5.490360     10.069642    -2.195386    1.640877   -1.144270
            17    1       0.853808      7.407740     11.529274    -0.105161   -0.465408   -0.418459
            18    2       0.854814      7.315627      8.304232    -0.485058   -0.319758    1.622910
            19    0       7.160673      0.279719      9.885162    -0.950908    1.464187    0.878448
            20    1       7.314256      1.980142     11.566195    -0.926285    1.092136   -1.582236
            21    2       7.111350      2.222685      8.523979     0.907825   -1.535187   -4.971088
            22    0       5.600290      3.003521      9.861051    -1.757364   -2.329196    6.437998
            23    1       5.565707      4.688438     11.695769     0.415320    0.440967   -2.312608
            24    2       5.489442      4.615224      8.430780     1.059201    2.279356   -1.007978
            25    0       3.905658      5.426547      9.988230     1.881470    2.347519   -0.153230
            26    1       4.196460      7.472836     11.505169    -0.889925   -2.271854    0.909915
            27    2       4.073598      7.348509      8.316133     1.038237   -0.703081    1.315520
 Energy
        -28.137450063698
 Feature   mindist	2.157672
END_CFG

BEGIN_CFG
 Size
    27
 Supercell
         9.110142      0.000000      0.000000
        -4.236717      7.857607      0.000000
         0.000000      0.000000    100.000000
 AtomData:  id type       cartes_x      cartes_y      cartes_z           fx          fy          fz
             1    0       0.828485      0.312306     10.004307    -5.821955    1.600086    1.726298
             2    1       0.774717      2.149157     11.563145     0.951461    0.012816   -0.868797
             3    2       0.674970      1.893744      8.503441     1.924075    2.116250   -2.935134
             4    0      -0.632184      2.985203      9.889379    -0.259213    3.049042    6.648431
             5    1      -0.601979      5.041042     11.659215     0.977682   -2.364584    0.406843
             6    2      -0.497907      4.974908      8.462658     0.459297   -2.191474   -3.037398
             7    0      -1.808862      5.655217      9.974829    -6.109216    1.121604    0.164248
             8    1      -2.004862      7.447993     11.413193     2.206518   -0.961067    3.325422
             9    2      -2.119267      7.545305      8.473271     3.652586   -2.074638   -1.566445
            10    0       3.895809      0.513621     10.013708    -1.494312   -2.036032   -2.352582
            11    1       3.815456      2.152157     11.468382     0.867516    0.956247    1.692954
            12    2       3.768432      2.152609      8.280852     1.454480    0.043337    1.181917
            13    0       2.423595      3.077724      9.938668    -2.592414   -1.917085    0.742869
            14    1       2.511151      4.757819     11.644061     0.032512    0.726449   -1.820891
            15    2       2.522354      4.650579      8.339944    -0.667450    2.248869    0.552575
            16    0       0.937060      5.691015     10.022313     3.289807    0.077840    0.696450
            17    1       1.083461      7.437857     11.719147    -0.128650    0.227407   -1.656470
            18    2       1.084863      7.394058      8.364151     0.198957    0.513935    1.100387
            19    0       6.819658      0.505456     10.026114    -1.152722   -1.199456    0.064466
            20    1       6.880110      2.242348     11.565708     0.902334   -0.228937    0.313390
            21    2       6.911625      2.264751      8.641927    -0.255442   -1.635237   -7.046893
            22    0       5.423192      3.008621      9.976233    -2.179665    2.157667    1.040907
            23    1       5.516205      4.722285     11.623788     0.864803    0.804292   -1.678990
            24    2       5.502726      4.840774      8.346730     1.955336   -0.708146    0.660064
            25    0       4.104670      5.667159      9.899252    -2.382437   -1.124662    2.730189
            26    1       3.833473      7.371913     11.530129     2.844636   -0.366870    0.976933
            27    2       4.048533      7.361941      8.464144     0.461477    1.152349   -1.060745
 Energy
        -26.396915816559
 Feature   mindist	2.096577
END_CFG

BEGIN_CFG
 Size
    27
 Supercell
         8.979398      0.000000      0.000000
        -4.571780      7.490407      0.000000
         0.000000      0.000000    100.000000
 AtomData:  id type       cartes_x      cartes_y      cartes_z           fx          fy          fz
             1    0       0.665687      0.467941     10.002977     4.028267   -2.818642   -0.133580
             2    1       0.580803      2.057664     11.732271     1.290171    0.931472   -1.310959
             3    2       0.628033      1.921383      8.459966     1.234277    2.443812   -1.212117
             4    0      -0.810902      2.766878      9.979001    -1.075835    3.215115    1.182930
             5    1      -0.759108      4.693060     11.488815    -2.599539   -2.178426    0.896458
             6    2      -0.752036      4.614236      8.450011    -1.480309   -1.650230   -1.287469
             7    0      -2.321501      5.506909      9.868175    -1.008295   -5.330603    2.706374
             8    1      -2.193768      7.079142     11.484141    -3.363028    0.169153    1.131938
             9    2      -2.317337      6.989112      8.319999    -1.633643    2.193803   -0.484425
            10    0       3.653329      0.282755      9.930773     0.397633    5.027819    0.538133
            11    1       3.704360      2.009809     11.569346    -0.711688   -0.316832   -0.682500
            12    2       3.746471      2.199065      8.344273    -2.570352   -2.263798   -0.018984
            13    0       2.188597      2.902743     10.047688    -0.894052   -2.629878   -2.153394
            14    1       2.116423      4.454016     11.542013     0.883561    2.181251    1.257522
            15    2       2.061411      4.555738      8.267729     0.977512    0.432245    1.695678
            16    0       0.637024      5.275382     10.002669     2.508440    3.947522   -1.495244
            17    1       0.537781      7.105902     11.563185     1.575028   -1.190810   -0.253244
            18    2       0.474102      7.207114      8.471622     2.444058   -2.774765   -2.341243
            19    0       6.626607      0.380693      9.957090     1.261450    0.202782    0.012108
            20    1       6.595407      2.121307     11.581683     0.092590   -0.414797   -0.840757
            21    2       6.678674      2.090050      8.365848     0.111067   -0.769990   -0.277646
            22    0       5.107263      2.812292      9.882810     2.454020    0.876320    3.443884
            23    1       5.142147      4.503582     11.599585     0.492706    1.056612   -1.654876
            24    2       5.171499      4.389479      8.360163     0.002595    2.581288   -0.245814
            25    0       3.655387      5.412949      9.970960    -0.194683   -3.365678    1.065273
            26    1       3.702333      7.207656     11.428249    -2.031982   -1.897753    3.166989
            27    2       3.841207      6.876980      8.480966    -2.189967    2.343006   -2.705036
 Energy
        -25.175835720937
 Feature   mindist	2.094931
END_CFG

BEGIN_CFG
 Size
    27
 Supercell
         9.650563      0.000000      0.000000
        -5.175780      8.023333      0.000000
         0.000000      0.000000    100.000000
 AtomData:  id type       cartes_x      cartes_y      cartes_z           fx          fy          fz
             1    0       0.830894      0.408999     10.099080     1.064918   -2.851292   -6.027736
             2    1       0.744268      2.045439     11.401009    -0.674952    2.235481    3.242330
             3    2       0.674952      2.131609      8.231160     0.334982   -0.775320    0.670925
             4    0      -0.793760      2.871876      9.858454    -0.900148    3.032644    1.893204
             5    1      -0.932313      4.894195     11.533428    -0.244634   -1.321164   -0.637337
             6    2      -0.992751      4.780455      8.387987    -0.694742    0.144331    0.488951
             7    0      -2.722882      5.776002     10.115155     1.174330    0.080242   -3.587868
             8    1      -2.703076      7.561388     11.768840    -0.237441    0.328474   -1.899785
             9    2      -2.676389      7.457891      8.277199    -1.874410   -0.389481    0.605641
            10    0       3.920748      0.364291      9.706332     1.514139    0.385230    6.267530
            11    1       3.793277      2.181215     11.625829     0.662215   -0.261252   -2.689839
            12    2       3.865216      2.187444      8.320496     0.343006    0.650849   -0.551550
            13    0       2.166123      2.931881      9.880407     2.679281    2.430891    0.367325
            14    1       2.462845      4.885818     11.606304    -2.494830   -0.952025   -0.323294
            15    2       2.315642      5.032363      8.496833    -0.199480   -1.300903   -0.414362
            16    0       0.567414      5.774161      9.875938     0.672795   -0.859363    2.307558
            17    1       0.485833      7.435474     11.491855    -0.772167    1.399161   -0.200021
            18    2       0.428925      7.549390      8.353123     1.314994    0.647469   -0.536737
            19    0       7.271913      0.496809     10.099580    -1.456011   -3.919454   -6.835108
            20    1       7.198580      2.155219     11.450145    -0.002159    2.261351    2.300896
            21    2       7.294486      2.097234      8.453679    -1.314980    0.364897   -1.694941
            22    0       5.555275      3.111161      9.900157    -1.196638   -1.164011    1.157553
            23    1       5.301511      4.970823     11.498017     2.360310   -2.002552    4.242454
            24    2       5.312862      4.837049      8.325046     0.818060    0.818882    1.575228
            25    0       3.899836      5.806105     10.173772    -2.067862    0.300950   -8.265152
            26    1       3.634279      7.659040     11.438988     1.276415   -0.082400    6.154573
            27    2       3.733118      7.459415      8.337386    -0.084993    0.798362    2.389563
 Energy
        -25.726282678659
 Feature   mindist	2.092955
END_CFG

BEGIN_CFG
 Size
    27
 Supercell
         8.844847      0.000000      0.000000
        -4.688202      8.802702      0.000000
         0.000000      0.000000    100.000000
 AtomData:  id type       cartes_x      cartes_y      cartes_z           fx          fy          fz
             1    0       0.793171      0.265239     10.099124    -5.094475    4.360264   -5.148233
             2    1       0.314575      2.574968     11.647696     1.477073   -0.864620   -1.568703
             3    2       0.614689      2.468585      8.439707    -0.897125   -1.736132   -1.695057
             4    0      -0.905788      3.537656      9.830322    -1.018864    0.641968    3.807217
             5    1      -0.978699      5.261354     11.605601     0.578683    0.867415   -1.538142
             6    2      -1.068739      5.369387      8.385818     1.452397    0.852169   -1.375667
             7    0      -2.360575      6.453190      9.974172    -1.235993    0.260614    1.031921
             8    1      -2.534839      8.537463     11.529094     2.243913   -3.515149    3.754645
             9    2      -2.489787      8.248074      8.372465     0.746199   -0.164270    0.898602
            10    0       3.622439      0.550313     10.031800    -0.121113    1.665240   -2.449158
            11    1       3.636554      2.478678     11.672482    -1.527804   -0.854060   -1.619577
            12    2       3.632655      2.576618      8.397006    -5.152475   -4.254788   -4.469705
            13    0       1.933247      3.399406      9.888856     2.666269    0.642208    4.250423
            14    1       2.049455      5.338456     11.397530    -1.981300   -0.282436    1.846692
            15    2       2.079259      5.258334      8.450278    -1.570577    0.646210   -2.505445
            16    0       0.482452      6.644662      9.910719    -0.855765   -6.489998   -1.086240
            17    1       0.463621      8.208624     11.326856    -1.375678    1.863237    6.137054
            18    2       0.274871      8.255314      8.412539     0.658912    1.774604   -1.784849
            19    0       6.488206      0.432058      9.972322     0.478314    2.674872   -5.334503
            20    1       6.511128      2.533236     11.425630    -1.369036   -0.494633   -0.195061
            21    2       6.382411      2.538373      8.472324     0.690665   -1.941675   -3.041989
            22    0       4.745615      3.331883      9.750960     6.308415    6.176167    8.563248
            23    1       4.896006      5.389296     11.432937     0.280178   -0.573967   -0.175462
            24    2       4.981594      5.499236      8.327518    -0.710721   -0.485805    0.856351
            25    0       3.348518      6.367300      9.966448     2.415865    0.924962   -2.377534
            26    1       3.061016      8.313435     11.394521     3.206693   -1.635332    4.627583
            27    2       3.410583      8.259042      8.401105    -0.292647   -0.057064    0.591586
 Energy
        -22.677905750319
 Feature   mindist	1.908481
END_CFG

BEGIN_CFG
 Size
    27
 Supercell
         9.134037      0.000000      0.000000
        -4.594640      8.584451      0.000000
         0.000000      0.000000    100.000000
 AtomData:  id type       cartes_x      cartes_y      cartes_z           fx          fy          fz
             1    0       0.704417      0.414251     10.062926     0.678830    1.677894    1.299058
             2    1       0.731697      2.359514     11.734025     0.196485   -0.304853   -1.904990
             3    2       0.706009      2.306358      8.643898     1.237214   -0.348561   -3.127508
             4    0      -0.756013      3.340686      9.970824    -1.398192    0.166352    1.158946
             5    1      -0.875170      5.184311     11.598558    -0.736075   -1.272866    0.135875
             6    2      -0.811288      5.279145      8.318904    -0.816228   -2.094954    0.263770
             7    0      -2.300170      6.050565      9.952822    -2.573546    0.890714   -0.525541
             8    1      -2.511881      8.053167     11.478947     2.191649   -1.088727    1.514380
             9    2      -2.351279      7.924874      8.480322     0.105732    1.041510   -0.218871
            10    0       3.809435      0.469542     10.023913    -1.638842   -2.270945    0.861335
            11    1       3.790576      2.287637     11.637863     0.366608   -0.550171    0.847036
            12    2       3.753520      2.188328      8.601990     0.136952    0.622034   -3.133038
            13    0       2.357607      3.227897     10.076272    -2.183277   -0.368713    0.338865
            14    1       2.210804      5.035681     11.439861    -0.536631    1.321233    2.990146
            15    2       2.239887      5.165072      8.582906    -0.942877   -0.166654   -1.766009
            16    0       0.427509      6.078370     10.022307     4.985134    1.050260   -2.102812
            17    1       0.690309      7.854329     11.408758    -0.241252    0.851530    3.161033
            18    2       0.652340      7.934120      8.410683     0.074555    0.301937    0.431019
            19    0       6.686309      0.460320     10.039268     2.556281   -1.191622   -1.834439
            20    1       6.960666      2.330285     11.562339    -1.075556   -0.123631    0.590934
            21    2       6.815495      2.072170      8.318379     0.066198    1.434593    1.630809
            22    0       5.276522      3.098589     10.052661     1.722326    2.442691   -1.111357
            23    1       5.405521      5.155230     11.587548    -1.233885   -0.615293   -0.979908
            24    2       5.136961      5.012368      8.265975     0.565055    0.118734    2.686259
            25    0       3.713457      6.167780     10.041867     2.147889   -0.599389    1.218422
            26    1       3.739343      8.170198     11.582807    -1.048920   -1.097575    0.532477
            27    2       3.900029      8.019046      8.627832    -2.605626    0.174471   -2.955891
 Energy
        -27.999512224375
 Feature   mindist	2.190657
END_CFG

BEGIN_CFG
 Size
    27
 Supercell
         9.303263      0.000000      0.000000
        -4.693515      8.272406      0.000000
         0.000000      0.000000    100.000000
 AtomData:  id type       cartes_x      cartes_y      cartes_z           fx          fy          fz
             1    0       0.711127      0.549697     10.177304     0.858238   -1.992141  -10.723302
             2    1       0.744282      2.196435     11.538986    -0.611357    2.569096    2.609687
             3    2       0.804869      2.328931      8.344174    -0.651495   -0.281619    2.040394
             4    0      -0.911494      3.248007      9.963169     1.717336   -1.583422    1.176133
             5    1      -0.873957      5.070556     11.537727     0.408330   -1.319241    2.664091
             6    2      -0.889657      4.920401      8.412180     0.856002    1.113241    0.678717
             7    0      -2.343365      5.863862     10.050086    -1.650786    1.588043   -3.396448
             8    1      -2.540214      7.777029     11.486778     2.268244   -0.234702    3.019290
             9    2      -2.334822      7.721053      8.391156    -1.148677    0.165486    1.585463
            10    0       3.834173      0.388476     10.004348    -1.339442    2.724344   -0.777436
            11    1       3.970018      2.318078     11.712531    -1.506301   -0.852910   -1.725659
            12    2       3.918407      2.384133      8.389334    -1.355365   -1.453661    1.061618
            13    0       2.318716      3.207837     10.035040     0.237321   -0.062425   -1.563050
            14    1       2.255565      5.084243     11.489963     0.676968   -1.517628    4.721665
            15    2       2.285610      5.083768      8.338618    -0.003247   -0.260074    2.469658
            16    0       0.717751      5.872900     10.166410    -0.973010    2.211406   -7.441520
            17    1       0.655516      7.898020     11.502709     1.176976   -1.368840    2.135093
            18    2       0.514264      7.740225      8.423725     2.110190   -0.704677    1.147400
            19    0       7.074617      0.374381     10.024039    -4.133886    2.128128    0.050330
            20    1       6.955991      2.243901     11.636340    -0.238926    0.119919   -1.384992
            21    2       6.852543      2.294483      8.490131     0.213538   -0.690850   -0.390503
            22    0       5.294060      3.255591     10.006719     2.492285    0.225467    1.077259
            23    1       5.444766      5.045569     11.665087    -0.224774   -0.669722   -0.295007
            24    2       5.421452      4.990094      8.287468    -0.294986    0.425496    2.357316
            25    0       3.887708      5.875122     10.124049     0.226420    1.231631   -5.531267
            26    1       3.952469      7.789393     11.471675    -1.962426   -0.507685    5.097780
            27    2       3.620972      7.785394      8.498701     2.852828   -1.002659   -0.662708
 Energy
        -27.440066807114
 Feature   mindist	2.137060
END_CFG

BEGIN_CFG
 Size
    27
 Supercell
         9.444744      0.000000      0.000000
        -4.790327      7.762389      0.000000
         0.000000      0.000000    100.000000
 AtomData:  id type       cartes_x      cartes_y      cartes_z           fx          fy          fz
             1    0       0.663327      0.396914     10.004788     1.774572    0.223308    2.865977
             2    1       0.840030      2.176125     11.660414    -0.712280   -0.844982   -0.564450
             3    2       0.638977      2.150826      8.475206     0.981623    0.123350   -0.044953
             4    0      -0.811318      3.000691     10.061556     0.547950   -0.869192   -3.212646
             5    1      -0.766381      4.585363     11.640052    -0.256733    2.056883   -0.886097
             6    2      -0.860376      4.766314      8.365164     0.959747   -0.125589    0.844040
             7    0      -2.429282      5.378920      9.939762     2.501835    3.793387    3.571072
             8    1      -2.331204      7.317246     11.568797    -1.379722   -0.701145   -0.802021
             9    2      -2.617167      7.258127      8.435568     1.530623    0.430922    0.540233
            10    0       3.935579      0.422979     10.009880    -1.249040    0.760147   -2.839976
            11    1       3.858252      2.344660     11.502905     2.002333   -1.563092    1.286237
            12    2       3.895579      2.255085      8.311775     0.427442   -0.854350    1.270849
            13    0       2.345153      2.924780     10.036001    -2.004308    2.646291   -2.766206
            14    1       2.078914      4.837228     11.575978     2.516767   -1.431426    0.836468
            15    2       2.264702      4.780727      8.353596     1.019141   -0.517964    1.953340
            16    0       0.815768      5.712913     10.016238    -3.442272   -2.252894   -2.554928
            17    1       0.517029      7.319702     11.582143     0.834389    0.861713    0.946082
            18    2       0.820129      7.368342      8.331861    -1.723301   -0.135009    0.747103
            19    0       6.885314      0.394045     10.020233     3.801392   -0.389000   -0.176057
            20    1       7.063857      2.225724     11.407638    -0.522489   -1.181138    3.844586
            21    2       6.979108      2.032521      8.441464     1.931508    0.790309   -1.169045
            22    0       5.605232      2.968993      9.898293    -3.718552    1.379983    0.776419
            23    1       5.533354      4.708122     11.603156    -0.899004   -0.407920   -0.107892
            24    2       5.550986      4.803268      8.489828    -2.159217   -1.075755   -1.926503
            25    0       3.875961      5.618161     10.114980    -0.282804   -1.311947   -2.141707
            26    1       3.684665      7.294228     11.688225     0.245476    1.056663   -0.896687
            27    2       4.020099      7.347809      8.413398    -2.725076   -0.461551    0.606762
 Energy
        -28.298868536408
 Feature   mindist	2.139714
END_CFG

BEGIN_CFG
 Size
    27
 Supercell
         9.277112      0.000000      0.000000
        -4.720937      8.356526      0.000000
         0.000000      0.000000    100.000000
 AtomData:  id type       cartes_x      cartes_y      cartes_z           fx          fy          fz
             1    0       0.618018      0.437589      9.820858     2.216851    0.546681    4.686897
             2    1       0.624403      2.317607     11.540401     1.139915   -0.646241   -0.803199
             3    2       0.686172      2.157382      8.317228    -0.153080    1.612859    0.340123
             4    0      -0.780502      3.226377      9.976463    -1.470471    0.321856    1.866917
             5    1      -1.021417      5.322235     11.546158     2.373258   -2.383399    1.089822
             6    2      -0.936434      4.922081      8.438941    -0.039440    0.997306   -0.524104
             7    0      -2.382248      6.093133     10.087231    -0.457769    2.487727   -1.596760
             8    1      -2.489418      7.902050     11.786838    -0.047989    0.451648   -2.593435
             9    2      -2.444897      7.972696      8.213162     0.215722   -0.672047    2.403730
            10    0       3.870415      0.588285     10.108730    -1.425899   -2.089310   -2.016883
            11    1       3.750889      2.350592     11.575066     0.114865    0.720751    0.957673
            12    2       3.528658      2.202264      8.297454     1.377346    0.553824    1.138072
            13    0       2.267394      3.281787      9.975500    -1.891169   -0.040237   -0.394012
            14    1       2.233946      5.075740     11.597805    -0.442663    0.009037   -1.618516
            15    2       2.246019      5.170303      8.325608    -0.548801   -1.705066   -0.766864
            16    0       0.639421      5.900918      9.880913     0.146437    2.098021    1.940919
            17    1       0.586887      7.792224     11.635974     1.019562   -0.026258   -1.499503
            18    2       0.569027      7.927689      8.374044    -1.215428   -1.324479   -1.763709
            19    0       6.977200      0.383833      9.589197    -2.896447    2.649536   13.636920
            20    1       6.830502      2.291183     11.591668    -0.069381   -0.023832   -1.970087
            21    2       6.829909      2.417710      8.581403    -0.853173    0.713542   -3.514434
            22    0       5.144225      3.368059      9.994314     1.925662   -1.734135    0.378337
            23    1       5.366984      5.095455     11.494448    -1.515415    0.578334    1.822666
            24    2       5.438847      5.262565      8.664930    -0.896537   -1.160968   -5.969721
            25    0       3.667045      6.014966      9.853749     0.752081    2.391007    6.493666
            26    1       3.785331      7.937952     11.627291    -0.789241   -0.690569   -2.506366
            27    2       3.630872      7.948999      8.470537     3.431204   -3.635586   -9.218147
 Energy
        -24.545302729975
 Feature   mindist	1.940928
END_CFG

BEGIN_CFG
 Size
    27
 Supercell
         8.813100      0.000000      0.000000
        -5.121178      8.406745      0.000000
         0.000000      0.000000    100.000000
 AtomData:  id type       cartes_x      cartes_y      cartes_z           fx          fy          fz
             1    0       0.695312      0.446820      9.935304     1.004467    2.156933    1.146498
             2    1       0.217313      2.234071     11.625496     2.555449    0.351883   -0.263792
             3    2       0.652998      2.260244      8.284182    -1.907470   -0.013145    1.054169
             4    0      -1.144202      3.212290     10.103938     3.789217    1.779788   -8.264796
             5    1      -1.373678      5.101260     11.430124     2.466251   -0.946518    6.521588
             6    2      -1.292374      5.023332      8.417696     0.946171    0.044075    1.452608
             7    0      -2.701142      6.027026     10.081034    -2.226626    1.258203   -4.946659
             8    1      -2.956536      7.902550     11.544692    -0.854648   -0.390796    2.391467
             9    2      -2.953638      7.894926      8.427825     1.262287   -0.670154    0.869916
            10    0       3.546660      0.540293     10.208526     0.496289   -2.327076   -8.260496
            11    1       3.435248      2.205157     11.614130    -0.160529    2.345566    0.718889
            12    2       3.303274      2.190587      8.425046    -0.241037   -0.545389   -1.479996
            13    0       1.852552      3.334608      9.928295     0.210855   -1.409256    3.378726
            14    1       1.733567      5.111001     11.525216     1.855698   -0.534272    2.884392
            15    2       1.747624      5.111727      8.480931    -0.834144    0.597636   -1.446504
            16    0       0.317859      6.035526     10.197693    -3.285010   -0.147870   -9.922000
            17    1      -0.073364      7.796221     11.479231     1.000820    1.410757    7.852013
            18    2       0.043978      7.922530      8.432876    -0.463008   -0.520032    2.037490
            19    0       6.563131      0.414937     10.190923     0.283389   -0.225901   -7.181323
            20    1       6.466238      2.335679     11.409484    -5.062979   -0.682433    6.530184
            21    2       6.243047      2.200449      8.605359     3.161862   -1.971126   -5.869905
            22    0       4.819643      3.087414      9.730474    -1.831756    2.354769   10.236402
            23    1       4.733708      5.109955     11.715818    -1.273473   -0.423752   -1.610150